 DBCSR| CPU Multiplication driver                                           XSMM
 DBCSR| Multrec recursion limit                                              512
 DBCSR| Multiplication stack size                                           1000
 DBCSR| Maximum elements for images                                    UNLIMITED
 DBCSR| Multiplicative factor virtual images                                   1
 DBCSR| Use multiplication densification                                       T
 DBCSR| Multiplication size stacks                                             3
 DBCSR| Use memory pool for CPU allocation                                     F
 DBCSR| Number of 3D layers                                               SINGLE
 DBCSR| Use MPI memory allocation                                              F
 DBCSR| Use RMA algorithm                                                      F
 DBCSR| Use Communication thread                                               T
 DBCSR| Communication thread load                                             87
 DBCSR| MPI: My node id                                                        0
 DBCSR| MPI: Number of nodes                                                  64
 DBCSR| OMP: Current number of threads                                         1
 DBCSR| OMP: Max number of threads                                             1
 DBCSR| Split modifier for TAS multiplication algorithm                  1.0E+00


  **** **** ******  **  PROGRAM STARTED AT               2023-09-10 10:48:04.971
 ***** ** ***  *** **   PROGRAM STARTED ON                                node77
 **    ****   ******    PROGRAM STARTED BY                                  wyin
 ***** **    ** ** **   PROGRAM PROCESS ID                                  2267
  **** **  *******  **  PROGRAM STARTED IN /home/wyin/bozai/job/3-slab/slab+H2O/
                                           1H2O/Hab/2-Ti40-44

 CP2K| version string:                                       CP2K version 2022.1
 CP2K| source code revision number:                                  git:2caeb6f
 CP2K| cp2kflags: omp libint fftw3 libxc elpa parallel mpi3 scalapack xsmm plume
 CP2K|            d2 spglib mkl libvori libbqb
 CP2K| is freely available from                            https://www.cp2k.org/
 CP2K| Program compiled at                          Mon Mar 13 16:18:57 CET 2023
 CP2K| Program compiled on                                               login02
 CP2K| Program compiled for                                                local
 CP2K| Data directory path                   /home/wyin/package/cp2k-2022.1/data
 CP2K| Input file name                                                 input.inp
 
 GLOBAL| Force Environment number                                              1
 GLOBAL| Basis set file name                                           BASIS_SET
 GLOBAL| Potential file name                                           POTENTIAL
 GLOBAL| MM Potential file name                                     MM_POTENTIAL
 GLOBAL| Coordinate file name                                      slab+1H2O.xyz
 GLOBAL| Force Environment number                                              2
 GLOBAL| Basis set file name            /home/wyin/bozai/Bootstrap/BASIS_SET/BAS
 GLOBAL| Potential file name            /home/wyin/bozai/Bootstrap/BASIS_SET/GTH
 GLOBAL| MM Potential file name                                     MM_POTENTIAL
 GLOBAL| Coordinate file name                                      __STD_INPUT__
 GLOBAL| Force Environment number                                              3
 GLOBAL| Basis set file name            /home/wyin/bozai/Bootstrap/BASIS_SET/BAS
 GLOBAL| Potential file name            /home/wyin/bozai/Bootstrap/BASIS_SET/GTH
 GLOBAL| MM Potential file name                                     MM_POTENTIAL
 GLOBAL| Coordinate file name                                      __STD_INPUT__
 GLOBAL| Method name                                                        CP2K
 GLOBAL| Project name                                                    PROJECT
 GLOBAL| Run type                                                         ENERGY
 GLOBAL| FFT library                                                       FFTW3
 GLOBAL| Diagonalization library                                            ELPA
 GLOBAL| Minimum number of eigenvectors for ELPA usage                        16
 GLOBAL| Orthonormality check for eigenvectors                          DISABLED
 GLOBAL| Matrix multiplication library                                 ScaLAPACK
 GLOBAL| All-to-all communication in single precision                          F
 GLOBAL| FFTs using library dependent lengths                                  F
 GLOBAL| Grid backend                                                       AUTO
 GLOBAL| Global print level                                               MEDIUM
 GLOBAL| MPI I/O enabled                                                       T
 GLOBAL| Total number of message passing processes                            64
 GLOBAL| Number of threads for this process                                    1
 GLOBAL| This output is from process                                           0
 GLOBAL| Stack size for threads created by OpenMP (OMP_STACKSIZE)        default
 GLOBAL| CPU model name               Intel(R) Xeon(R) Silver 4216 CPU @ 2.10GHz
 GLOBAL| CPUID                                                              1003
 GLOBAL| Compiled for CPUID                                                 1001

 *** HINT in environment.F:869 :: The compiler target flags (x86_avx) used ***
 *** to build this binary cannot exploit all extensions of this CPU model  ***
 *** (x86_avx512). Consider compiler target flags as part of FCFLAGS and   ***
 *** CFLAGS (ARCH file).                                                   ***


 MEMORY| system memory details [Kb]
 MEMORY|                        rank 0           min           max       average
 MEMORY| MemTotal            196520712     196520712     196520712     196520712
 MEMORY| MemFree             186177972     186177972     186177972     186177972
 MEMORY| Buffers                 18624         18624         18624         18624
 MEMORY| Cached                 239312        239312        239312        239312
 MEMORY| Slab                   197692        197692        197692        197692
 MEMORY| SReclaimable            60736         60736         60736         60736
 MEMORY| MemLikelyFree       186496644     186496644     186496644     186496644


 *** Fundamental physical constants (SI units) ***

 *** Literature: B. J. Mohr and B. N. Taylor,
 ***             CODATA recommended values of the fundamental physical
 ***             constants: 2006, Web Version 5.1
 ***             http://physics.nist.gov/constants

 Speed of light in vacuum [m/s]                             2.99792458000000E+08
 Magnetic constant or permeability of vacuum [N/A**2]       1.25663706143592E-06
 Electric constant or permittivity of vacuum [F/m]          8.85418781762039E-12
 Planck constant (h) [J*s]                                  6.62606896000000E-34
 Planck constant (h-bar) [J*s]                              1.05457162825177E-34
 Elementary charge [C]                                      1.60217648700000E-19
 Electron mass [kg]                                         9.10938215000000E-31
 Electron g factor [ ]                                     -2.00231930436220E+00
 Proton mass [kg]                                           1.67262163700000E-27
 Fine-structure constant                                    7.29735253760000E-03
 Rydberg constant [1/m]                                     1.09737315685270E+07
 Avogadro constant [1/mol]                                  6.02214179000000E+23
 Boltzmann constant [J/K]                                   1.38065040000000E-23
 Atomic mass unit [kg]                                      1.66053878200000E-27
 Bohr radius [m]                                            5.29177208590000E-11

 *** Conversion factors ***

 [u] -> [a.u.]                                              1.82288848426455E+03
 [Angstrom] -> [Bohr] = [a.u.]                              1.88972613288564E+00
 [a.u.] = [Bohr] -> [Angstrom]                              5.29177208590000E-01
 [a.u.] -> [s]                                              2.41888432650478E-17
 [a.u.] -> [fs]                                             2.41888432650478E-02
 [a.u.] -> [J]                                              4.35974393937059E-18
 [a.u.] -> [N]                                              8.23872205491840E-08
 [a.u.] -> [K]                                              3.15774647902944E+05
 [a.u.] -> [kJ/mol]                                         2.62549961709828E+03
 [a.u.] -> [kcal/mol]                                       6.27509468713739E+02
 [a.u.] -> [Pa]                                             2.94210107994716E+13
 [a.u.] -> [bar]                                            2.94210107994716E+08
 [a.u.] -> [atm]                                            2.90362800883016E+08
 [a.u.] -> [eV]                                             2.72113838565563E+01
 [a.u.] -> [Hz]                                             6.57968392072181E+15
 [a.u.] -> [1/cm] (wave numbers)                            2.19474631370540E+05
 [a.u./Bohr**2] -> [1/cm]                                   5.14048714338585E+03
 
 MIXED_ENV| Number of created MPI groups:                                      1
 MIXED_ENV| Task to group correspondence:
  (   0 :    0)  (   1 :    0)  (   2 :    0)  (   3 :    0)
  (   4 :    0)  (   5 :    0)  (   6 :    0)  (   7 :    0)
  (   8 :    0)  (   9 :    0)  (  10 :    0)  (  11 :    0)
  (  12 :    0)  (  13 :    0)  (  14 :    0)  (  15 :    0)
  (  16 :    0)  (  17 :    0)  (  18 :    0)  (  19 :    0)
  (  20 :    0)  (  21 :    0)  (  22 :    0)  (  23 :    0)
  (  24 :    0)  (  25 :    0)  (  26 :    0)  (  27 :    0)
  (  28 :    0)  (  29 :    0)  (  30 :    0)  (  31 :    0)
  (  32 :    0)  (  33 :    0)  (  34 :    0)  (  35 :    0)
  (  36 :    0)  (  37 :    0)  (  38 :    0)  (  39 :    0)
  (  40 :    0)  (  41 :    0)  (  42 :    0)  (  43 :    0)
  (  44 :    0)  (  45 :    0)  (  46 :    0)  (  47 :    0)
  (  48 :    0)  (  49 :    0)  (  50 :    0)  (  51 :    0)
  (  52 :    0)  (  53 :    0)  (  54 :    0)  (  55 :    0)
  (  56 :    0)  (  57 :    0)  (  58 :    0)  (  59 :    0)
  (  60 :    0)  (  61 :    0)  (  62 :    0)  (  63 :    0)

 CELL_TOP| Volume [angstrom^3]:                                      3844.865420
 CELL_TOP| Vector a [angstrom    12.994     0.000     0.000   |a| =    12.993800
 CELL_TOP| Vector b [angstrom     0.000    11.836     0.000   |b| =    11.836000
 CELL_TOP| Vector c [angstrom     0.000     0.000    25.000   |c| =    25.000000
 CELL_TOP| Angle (b,c), alpha [degree]:                                90.000000
 CELL_TOP| Angle (a,c), beta  [degree]:                                90.000000
 CELL_TOP| Angle (a,b), gamma [degree]:                                90.000000
 CELL_TOP| Numerically orthorhombic:                                         YES
 
 GENERATE|  Preliminary Number of Bonds generated:                             0
 GENERATE|  Achieved consistency in connectivity generation.

 CELL| Volume [angstrom^3]:                                          3844.865420
 CELL| Vector a [angstrom]:      12.994     0.000     0.000   |a| =    12.993800
 CELL| Vector b [angstrom]:       0.000    11.836     0.000   |b| =    11.836000
 CELL| Vector c [angstrom]:       0.000     0.000    25.000   |c| =    25.000000
 CELL| Angle (b,c), alpha [degree]:                                    90.000000
 CELL| Angle (a,c), beta  [degree]:                                    90.000000
 CELL| Angle (a,b), gamma [degree]:                                    90.000000
 CELL| Numerically orthorhombic:                                             YES

 CELL_REF| Volume [angstrom^3]:                                      3844.865420
 CELL_REF| Vector a [angstrom    12.994     0.000     0.000   |a| =    12.993800
 CELL_REF| Vector b [angstrom     0.000    11.836     0.000   |b| =    11.836000
 CELL_REF| Vector c [angstrom     0.000     0.000    25.000   |c| =    25.000000
 CELL_REF| Angle (b,c), alpha [degree]:                                90.000000
 CELL_REF| Angle (a,c), beta  [degree]:                                90.000000
 CELL_REF| Angle (a,b), gamma [degree]:                                90.000000
 CELL_REF| Numerically orthorhombic:                                         YES


 MOLECULE KIND INFORMATION


 All atoms are their own molecule, skipping detailed information
 
 MIXED_CDFT| Activating mixed CDFT calculation
 MIXED_CDFT| Number of CDFT states:                                            2
 MIXED_CDFT| CDFT states calculation mode: serial
 MIXED_CDFT| The constraints are separately built for all CDFT states
 MIXED_CDFT| Calculating electronic coupling between states:                   T
 MIXED_CDFT| Calculating electronic coupling reliability metric:               F
 MIXED_CDFT| Configuration interaction (CDFT-CI) was requested:                F
 MIXED_CDFT| Block diagonalizing the mixed CDFT Hamiltonian:                   F
 MIXED_CDFT| Matrix inversions calculated with LU decomposition.

  ------------------------- CDFT coupling information --------------------------
  Information at step (fs):                                                 0.00

  ############################################
  ###### CDFT states I =  1 and J =   2 ######
  ############################################
  Atomic group:                                                                1
  Strength of constraint I:                                      -0.050035962332
  Strength of constraint J:                                      -0.049848960979
  Final value of constraint I:                                    0.999448920335
  Final value of constraint J:                                    0.999746743157

  Overlap between states I and J:                                 0.092705153304
  Charge transfer energy (J-I) (Hartree):                        -0.000144464246
 
  Diabatic electronic coupling (Lowdin, mHartree):                2.730000179497
  ------------------------------------------------------------------------------
 NO FORCE_EVAL section calculated the dipole

 ENERGY| Total FORCE_EVAL ( MIXED ) energy [a.u.]:         -5793.061062794850841

 -------------------------------------------------------------------------------
 -                                                                             -
 -                                DBCSR STATISTICS                             -
 -                                                                             -
 -------------------------------------------------------------------------------
 COUNTER                                    TOTAL       BLAS       SMM       ACC
 flops     5 x     4 x     5               830400       0.0%    100.0%      0.0%
 flops     5 x     5 x     5              1036000       0.0%    100.0%      0.0%
 flops     5 x    23 x     5              7295600       0.0%    100.0%      0.0%
 flops     5 x     5 x   100              9510000       0.0%    100.0%      0.0%
 flops     5 x     5 x   101              9605100       0.0%    100.0%      0.0%
 flops     5 x     5 x   439             42407400       0.0%    100.0%      0.0%
 flops    13 x     4 x     5            106332720       0.0%    100.0%      0.0%
 flops     5 x     4 x    13            106332720       0.0%    100.0%      0.0%
 flops   439 x   100 x   439            115632600       0.0%    100.0%      0.0%
 flops   439 x   101 x   439            116788926       0.0%    100.0%      0.0%
 flops     5 x     5 x    96            127814400       0.0%    100.0%      0.0%
 flops    13 x     5 x     5            132659800       0.0%    100.0%      0.0%
 flops     5 x     5 x    13            132659800       0.0%    100.0%      0.0%
 flops    26 x     4 x     5            138178560       0.0%    100.0%      0.0%
 flops     5 x     4 x    26            138178560       0.0%    100.0%      0.0%
 flops    26 x     5 x     5            172390400       0.0%    100.0%      0.0%
 flops     5 x     5 x    26            172390400       0.0%    100.0%      0.0%
 flops     5 x     5 x   416            281299200       0.0%    100.0%      0.0%
 flops    13 x    23 x     5            744533920       0.0%    100.0%      0.0%
 flops     5 x    23 x    13            744533920       0.0%    100.0%      0.0%
 flops   439 x   100 x   416            767020800       0.0%    100.0%      0.0%
 flops   416 x   100 x   439            767020800       0.0%    100.0%      0.0%
 flops   439 x   101 x   416            774691008       0.0%    100.0%      0.0%
 flops   416 x   101 x   439            774691008       0.0%    100.0%      0.0%
 flops    13 x     5 x   100            799474000       0.0%    100.0%      0.0%
 flops    13 x     5 x   101            807468740       0.0%    100.0%      0.0%
 flops     5 x    13 x   100            824200000       0.0%    100.0%      0.0%
 flops     5 x    13 x   101            832442000       0.0%    100.0%      0.0%
 flops    26 x    23 x     5            967516160       0.0%    100.0%      0.0%
 flops     5 x    23 x    26            967516160       0.0%    100.0%      0.0%
 flops    26 x     5 x   100           1054976000       0.0%    100.0%      0.0%
 flops     5 x    26 x   100           1054976000       0.0%    100.0%      0.0%
 flops    26 x     5 x   101           1065525760       0.0%    100.0%      0.0%
 flops     5 x    26 x   101           1065525760       0.0%    100.0%      0.0%
 flops     5 x    32 x     5           1374208000       0.0%    100.0%      0.0%
 flops   439 x    96 x   439           1554102144       0.0%    100.0%      0.0%
 flops    13 x     5 x   439           3565048760       0.0%    100.0%      0.0%
 flops     5 x    13 x   439           3675308000       0.0%    100.0%      0.0%
 flops   100 x   100 x   100           4260000000       0.0%    100.0%      0.0%
 flops   101 x   101 x   101           4529203196       0.0%    100.0%      0.0%
 flops    26 x     5 x   439           4704394240       0.0%    100.0%      0.0%
 flops     5 x    26 x   439           4704394240       0.0%    100.0%      0.0%
 flops   100 x   100 x   429           8459880000       0.0%    100.0%      0.0%
 flops   101 x   101 x   429           8629923588       0.0%    100.0%      0.0%
 flops   429 x   100 x   100          10296000000       0.0%    100.0%      0.0%
 flops   416 x    96 x   439          10308759552       0.0%    100.0%      0.0%
 flops   439 x    96 x   416          10308759552       0.0%    100.0%      0.0%
 flops   429 x   101 x   101          10555464348       0.0%    100.0%      0.0%
 flops    13 x     5 x    96          10744930560       0.0%    100.0%      0.0%
 flops     5 x    13 x    96          11077248000       0.0%    100.0%      0.0%
 flops    26 x     5 x    96          14178877440       0.0%    100.0%      0.0%
 flops     5 x    26 x    96          14178877440       0.0%    100.0%      0.0%
 flops   100 x   100 x   421          16604240000       0.0%    100.0%      0.0%
 flops   101 x   101 x   421          16937985224       0.0%    100.0%      0.0%
 flops    13 x     4 x    13          20041612656       0.0%    100.0%      0.0%
 flops   421 x   100 x   100          20208000000       0.0%    100.0%      0.0%
 flops   421 x   101 x   101          20717251704       0.0%    100.0%      0.0%
 flops    26 x     4 x    26          22992912384       0.0%    100.0%      0.0%
 flops    26 x     4 x    13          23023786656       0.0%    100.0%      0.0%
 flops    13 x     4 x    26          23023786656       0.0%    100.0%      0.0%
 flops    13 x     5 x   416          23647886080       0.0%    100.0%      0.0%
 flops   429 x   100 x   429          23704480800       0.0%    100.0%      0.0%
 flops   429 x   101 x   429          23941525608       0.0%    100.0%      0.0%
 flops     5 x    13 x   416          24379264000       0.0%    100.0%      0.0%
 flops    13 x     5 x    13          25003746040       0.0%    100.0%      0.0%
 flops   100 x   100 x    96          28627200000       0.0%    100.0%      0.0%
 flops    96 x   100 x   100          28627200000       0.0%    100.0%      0.0%
 flops   100 x    96 x   100          28627200000       0.0%    100.0%      0.0%
 flops    26 x     5 x    26          28685762560       0.0%    100.0%      0.0%
 flops    26 x     5 x    13          28724281040       0.0%    100.0%      0.0%
 flops    13 x     5 x    26          28724281040       0.0%    100.0%      0.0%
 flops   101 x   101 x    96          30134896512       0.0%    100.0%      0.0%
 flops    96 x   101 x   101          30134896512       0.0%    100.0%      0.0%
 flops   101 x    96 x   101          30134896512       0.0%    100.0%      0.0%
 flops    26 x     5 x   416          31205457920       0.0%    100.0%      0.0%
 flops     5 x    26 x   416          31205457920       0.0%    100.0%      0.0%
 flops   100 x   100 x   416          41017600000       0.0%    100.0%      0.0%
 flops   101 x   101 x   416          41842053760       0.0%    100.0%      0.0%
 flops   429 x   100 x   421          46524878400       0.0%    100.0%      0.0%
 flops   421 x   100 x   429          46524878400       0.0%    100.0%      0.0%
 flops   429 x   101 x   421          46990127184       0.0%    100.0%      0.0%
 flops   421 x   101 x   429          46990127184       0.0%    100.0%      0.0%
 flops   416 x   100 x   100          49920000000       0.0%    100.0%      0.0%
 flops   416 x   101 x   101          51178008960       0.0%    100.0%      0.0%
 flops    96 x   100 x   429          56850393600       0.0%    100.0%      0.0%
 flops   100 x    96 x   429          56850393600       0.0%    100.0%      0.0%
 flops    96 x   101 x   429          57418897536       0.0%    100.0%      0.0%
 flops   101 x    96 x   429          57418897536       0.0%    100.0%      0.0%
 flops   429 x   100 x    96          69189120000       0.0%    100.0%      0.0%
 flops   429 x    96 x   100          69189120000       0.0%    100.0%      0.0%
 flops   429 x   101 x    96          70230416256       0.0%    100.0%      0.0%
 flops   429 x    96 x   101          70230416256       0.0%    100.0%      0.0%
 flops   421 x   100 x   421          91314563200       0.0%    100.0%      0.0%
 flops   421 x   101 x   421          92227708832       0.0%    100.0%      0.0%
 flops    96 x   100 x   421         111580492800       0.0%    100.0%      0.0%
 flops   100 x    96 x   421         111580492800       0.0%    100.0%      0.0%
 flops    96 x   101 x   421         112696297728       0.0%    100.0%      0.0%
 flops   101 x    96 x   421         112696297728       0.0%    100.0%      0.0%
 flops   429 x   100 x   416         114930816000       0.0%    100.0%      0.0%
 flops   416 x   100 x   429         114930816000       0.0%    100.0%      0.0%
 flops   429 x   101 x   416         116080124160       0.0%    100.0%      0.0%
 flops   416 x   101 x   429         116080124160       0.0%    100.0%      0.0%
 flops   421 x    96 x   100         135797760000       0.0%    100.0%      0.0%
 flops   421 x   100 x    96         135797760000       0.0%    100.0%      0.0%
 flops   421 x    96 x   101         137841516288       0.0%    100.0%      0.0%
 flops   421 x   101 x    96         137841516288       0.0%    100.0%      0.0%
 flops    13 x    23 x    13         140975737240       0.0%    100.0%      0.0%
 flops    13 x    32 x     5         148523248640       0.0%    100.0%      0.0%
 flops     5 x    32 x    13         148523248640       0.0%    100.0%      0.0%
 flops    13 x    13 x   100         154397386000       0.0%    100.0%      0.0%
 flops    13 x    13 x   101         155941359860       0.0%    100.0%      0.0%
 flops    26 x    23 x    13         161210868416       0.0%    100.0%      0.0%
 flops    13 x    23 x    26         161210868416       0.0%    100.0%      0.0%
 flops    26 x    23 x    26         162276341760       0.0%    100.0%      0.0%
 flops    26 x    13 x   100         175676581600       0.0%    100.0%      0.0%
 flops    13 x    26 x   100         175890873600       0.0%    100.0%      0.0%
 flops    26 x    13 x   101         177433347416       0.0%    100.0%      0.0%
 flops    13 x    26 x   101         177649782336       0.0%    100.0%      0.0%
 flops    26 x    26 x   100         178290944000       0.0%    100.0%      0.0%
 flops    26 x    26 x   101         180073853440       0.0%    100.0%      0.0%
 flops    96 x    96 x   100         192374784000       0.0%    100.0%      0.0%
 flops    96 x   100 x    96         192374784000       0.0%    100.0%      0.0%
 flops   100 x    96 x    96         192374784000       0.0%    100.0%      0.0%
 flops    26 x    32 x     5         193004830720       0.0%    100.0%      0.0%
 flops     5 x    32 x    26         193004830720       0.0%    100.0%      0.0%
 flops    96 x    96 x   101         200501489664       0.0%    100.0%      0.0%
 flops    96 x   101 x    96         200501489664       0.0%    100.0%      0.0%
 flops   101 x    96 x    96         200501489664       0.0%    100.0%      0.0%
 flops   416 x   100 x   421         225575168000       0.0%    100.0%      0.0%
 flops   421 x   100 x   416         225575168000       0.0%    100.0%      0.0%
 flops   416 x   101 x   421         227830919680       0.0%    100.0%      0.0%
 flops   421 x   101 x   416         227830919680       0.0%    100.0%      0.0%
 flops    96 x   100 x   416         275638272000       0.0%    100.0%      0.0%
 flops   100 x    96 x   416         275638272000       0.0%    100.0%      0.0%
 flops    96 x   101 x   416         278394654720       0.0%    100.0%      0.0%
 flops   101 x    96 x   416         278394654720       0.0%    100.0%      0.0%
 flops   429 x    96 x   429         318588221952       0.0%    100.0%      0.0%
 flops   416 x    96 x   100         335462400000       0.0%    100.0%      0.0%
 flops   416 x   100 x    96         335462400000       0.0%    100.0%      0.0%
 flops   416 x    96 x   101         340511109120       0.0%    100.0%      0.0%
 flops   416 x   101 x    96         340511109120       0.0%    100.0%      0.0%
 flops   416 x   100 x   416         562328166400       0.0%    100.0%      0.0%
 flops   416 x   101 x   416         567951448064       0.0%    100.0%      0.0%
 flops   421 x    96 x   429         625294365696       0.0%    100.0%      0.0%
 flops   429 x    96 x   421         625294365696       0.0%    100.0%      0.0%
 flops    13 x    13 x   439         688495447640       0.0%    100.0%      0.0%
 flops    96 x    96 x   429         764069289984       0.0%    100.0%      0.0%
 flops    26 x    13 x   439         783384549584       0.0%    100.0%      0.0%
 flops    13 x    26 x   439         784340129664       0.0%    100.0%      0.0%
 flops    26 x    26 x   439         795042626560       0.0%    100.0%      0.0%
 flops   429 x    96 x    96         932226527232       0.0%    100.0%      0.0%
 flops   421 x    96 x   421        1227267729408       0.0%    100.0%      0.0%
 flops    96 x    96 x   421        1499641823232       0.0%    100.0%      0.0%
 flops   416 x    96 x   429        1544670167040       0.0%    100.0%      0.0%
 flops   429 x    96 x   416        1544670167040       0.0%    100.0%      0.0%
 flops   421 x    96 x    96        1829684699136       0.0%    100.0%      0.0%
 flops    13 x    13 x    96        2075100867840       0.0%    100.0%      0.0%
 flops    26 x    13 x    96        2361093256704       0.0%    100.0%      0.0%
 flops    13 x    26 x    96        2363973341184       0.0%    100.0%      0.0%
 flops    26 x    26 x    96        2396230287360       0.0%    100.0%      0.0%
 flops    96 x    96 x    96        2626788261888       0.0%    100.0%      0.0%
 flops   416 x    96 x   421        3031730257920       0.0%    100.0%      0.0%
 flops   421 x    96 x   416        3031730257920       0.0%    100.0%      0.0%
 flops    96 x    96 x   416        3704578375680       0.0%    100.0%      0.0%
 flops   416 x    96 x    96        4519886192640       0.0%    100.0%      0.0%
 flops    13 x    13 x   416        4566967525120       0.0%    100.0%      0.0%
 flops    26 x    13 x   416        5196391363072       0.0%    100.0%      0.0%
 flops    13 x    26 x   416        5202729971712       0.0%    100.0%      0.0%
 flops    26 x    26 x   416        5273722388480       0.0%    100.0%      0.0%
 flops   416 x    96 x   416        7557690556416       0.0%    100.0%      0.0%
 flops    13 x    32 x    13       28087141262336       0.0%    100.0%      0.0%
 flops    26 x    32 x    13       32159128348672       0.0%    100.0%      0.0%
 flops    13 x    32 x    26       32159128348672       0.0%    100.0%      0.0%
 flops    26 x    32 x    26       32301453410304       0.0%    100.0%      0.0%
 flops inhomo. stacks                           0       0.0%      0.0%      0.0%
 flops total                       204.219700E+12       0.0%    100.0%      0.0%
 flops max/rank                      3.442348E+12       0.0%    100.0%      0.0%
 matmuls inhomo. stacks                         0       0.0%      0.0%      0.0%
 matmuls total                         6831426526       0.0%    100.0%      0.0%
 number of processed stacks              22760240       0.0%    100.0%      0.0%
 average stack size                                     0.0     300.1       0.0
 marketing flops                   293.994706E+12
 -------------------------------------------------------------------------------
 # multiplications                          15894
 max memory usage/rank             680.742912E+06
 # max total images/rank                        1
 # max 3D layers                                1
 # MPI messages exchanged                14241024
 MPI messages size (bytes):
  total size                         6.988527E+12
  min size                           0.000000E+00
  max size                           1.541768E+06
  average size                     490.732094E+03
 MPI breakdown and total messages size (bytes):
             size <=      128              252448                        0
       128 < size <=     8192                   0                        0
      8192 < size <=    32768                   0                        0
     32768 < size <=   131072             4991840             372028392848
    131072 < size <=  4194304             8996736            6616180842376
   4194304 < size <= 16777216                   0                        0
  16777216 < size                               0                        0
 -------------------------------------------------------------------------------
 -                                                                             -
 -                      DBCSR MESSAGE PASSING PERFORMANCE                      -
 -                                                                             -
 -------------------------------------------------------------------------------
 ROUTINE             CALLS      AVE VOLUME [Bytes]
 MP_Bcast              175                     12.
 MP_Allreduce        81559                    181.
 MP_Alltoall        100110                 350599.
 MP_ISend           508608                 222874.
 MP_IRecv           508608                 221218.
 -------------------------------------------------------------------------------

 -------------------------------------------------------------------------------
 -                                                                             -
 -                                DBM STATISTICS                               -
 -                                                                             -
 -------------------------------------------------------------------------------
    M  x    N  x    K                                          COUNT     PERCENT
 -------------------------------------------------------------------------------

 -------------------------------------------------------------------------------
 -                                                                             -
 -                                GRID STATISTICS                              -
 -                                                                             -
 -------------------------------------------------------------------------------
 LP    KERNEL             BACKEND                              COUNT     PERCENT
 5     collocate ortho    REF                              160092608      33.40%
 5     integrate ortho    REF                               81561376      17.02%
 4     collocate ortho    REF                               78768160      16.43%
 6     collocate ortho    REF                               76276540      15.91%
 4     integrate ortho    REF                               40129520       8.37%
 6     integrate ortho    REF                               38860130       8.11%
 3     collocate ortho    REF                                2069376       0.43%
 3     integrate ortho    REF                                1054272       0.22%
 0     collocate general  REF                                 251648       0.05%
 2     collocate ortho    REF                                 107780       0.02%
 2     integrate ortho    REF                                  54910       0.01%
 0     integrate general  REF                                  49920       0.01%
 -------------------------------------------------------------------------------

 MEMORY| Estimated peak process memory [MiB]                                 648

 -------------------------------------------------------------------------------
 -                                                                             -
 -                         MESSAGE PASSING PERFORMANCE                         -
 -                                                                             -
 -------------------------------------------------------------------------------

 ROUTINE             CALLS      AVE VOLUME [Bytes]
 MP_Group               10
 MP_Bcast             4154                 208006.
 MP_Allreduce         8932                    324.
 MP_Sync               207
 MP_Alltoall         13108                5061010.
 MP_SendRecv         15264                 589824.
 MP_ISendRecv       361746                  16128.
 MP_Wait            657573
 MP_comm_split          99
 MP_ISend           276645                 134608.
 MP_IRecv           276645                 134774.
 MP_Recv              1872                 857856.
 MP_Write_All            4                 107904.
 -------------------------------------------------------------------------------


 -------------------------------------------------------------------------------
 -                                                                             -
 -                           R E F E R E N C E S                               -
 -                                                                             -
 -------------------------------------------------------------------------------
 
 CP2K version 2022.1, the CP2K developers group (2022).
 CP2K is freely available from https://www.cp2k.org/ .

 Kuehne,Thomas D.; Iannuzzi,Marcella; Del Ben,Mauro;
 Rybkin,Vladimir V.; Seewald,Patrick; Stein,Frederick; Laino,Teodoro;
 Khaliullin,Rustam Z.; Schuett,Ole; Schiffmann,Florian; Golze,Dorothea;
 Wilhelm,Jan; Chulkov,Sergey; Bani-Hashemian,Mohammad Hossein;
 Weber,Valery; Borstnik,Urban; Taillefumier,Mathieu;
 Jakobovits,Alice Shoshana; Lazzaro,Alfio; Pabst,Hans; Mueller,Tiziano;
 Schade,Robert; Guidon,Manuel; Andermatt,Samuel; Holmberg,Nico;
 Schenter,Gregory K.; Hehn,Anna; Bussy,Augustin; Belleflamme,Fabian;
 Tabacchi,Gloria; Gloess,Andreas; Lass,Michael; Bethune,Iain;
 Mundy,Christopher J.; Plessl,Christian; Watkins,Matt;
 VandeVondele,Joost; Krack,Matthias; Hutter,Juerg. 
 The Journal of Chemical Physics, 152 (19), (2020). 
 CP2K: An electronic structure and molecular dynamics software package -
 Quickstep: Efficient and accurate electronic structure calculations.
 https://doi.org/10.1063/5.0007045

 Holmberg, Nico; Laasonen, Kari. 
 The Journal of Chemical Physics, 149 (10), 104702 (2018). 
 Diabatic model for electrochemical hydrogen evolution based on
 constrained DFT
 configuration interaction.
 https://doi.org/10.1063/1.5038959

 Holmberg, N; Laasonen, K. 
 Journal of Chemical Theory and Computation, 13 (2), (2017). 
 Efficient Constrained Density Functional Theory Implementation for
 Simulation of Condensed Phase Electron Transfer Reactions.
 https://doi.org/10.1021/acs.jctc.6b01085

 Goerigk, Lars; Hansen, Andreas; Bauer, Christoph; Ehrlich, Stephan;
 Najibi, Asim; Grimme, Stefan. , 19 (48), (2017). 
 A look at the density functional theory zoo with the advanced GMTKN55 database
 for general main group thermochemistry, kinetics and noncovalent interactions.
 https://doi.org/10.1039/C7CP04913G

 Schuett, Ole; Messmer, Peter; Hutter, Juerg; VandeVondele, Joost. 
 Electronic Structure Calculations on Graphics Processing Units, John
 Wiley & Sons, Ltd, 173-190 (2016). 
 GPU-Accelerated Sparse Matrix-Matrix Multiplication for
 Linear Scaling Density Functional Theory.
 https://doi.org/10.1002/9781118670712.ch8

 Heinecke, A; Henry, G; Hutchinson, M; Pabst, H. 
 Proceedings of Intl. Supercomputing Conference, 981-991 (2016). 
 LIBXSMM: Accelerating Small Matrix Multiplications
 by Runtime Code Generation.
 https://doi.org/10.1109/SC.2016.83

 Borstnik, U; VandeVondele, J; Weber, V; Hutter, J. 
 PARALLEL COMPUTING, 40 (5-6), 47-58 (2014). 
 Sparse matrix multiplication: The distributed block-compressed sparse
 row library.
 https://doi.org/10.1016/j.parco.2014.03.012

 Hutter, J; Iannuzzi, M; Schiffmann, F; VandeVondele, J. 
 WIREs Comput Mol Sci., 4 (1), 15-25 (2014). 
 CP2K: atomistic simulations of condensed matter systems.
 https://doi.org/10.1002/wcms.1159

 Marek, A; Blum, V; Johanni, R; Havu, V; Lang, B; Auckenthaler, T;
 Heinecke, A; Bungartz, H; Lederer, H. 
 Journal of Physics: Condensed Matter, 26 (21), (2014). 
 The ELPA library: scalable parallel eigenvalue solutions for
 electronic structure
 theory and computational science.
 https://doi.org/10.1088/0953-8984/26/21/213201

 Grimme, S; Ehrlich, S; Goerigk, L. 
 JOURNAL OF COMPUTATIONAL CHEMISTRY, 32, 1456 (2011). 
 Effect of the damping function in dispersion corrected density functional theory.
 https://doi.org/10.1002/jcc.21759

 Grimme, S; Antony, J; Ehrlich, S; Krieg, H. 
 JOURNAL OF CHEMICAL PHYSICS, 132 (15), 154104 (2010). 
 A consistent and accurate ab initio parametrization of density
 functional dispersion correction (DFT-D) for the 94 elements H-Pu.
 https://doi.org/10.1063/1.3382344

 Weber, V; VandeVondele, J; Hutter, J; Niklasson, AMN. 
 JOURNAL OF CHEMICAL PHYSICS, 128 (8), 084113 (2008). 
 Direct energy functional minimization under orthogonality constraints.
 https://doi.org/10.1063/1.2841077

 VandeVondele, J; Hutter, J. 
 JOURNAL OF CHEMICAL PHYSICS, 127 (11), 114105 (2007). 
 Gaussian basis sets for accurate calculations on molecular systems in
 gas and condensed phases.
 https://doi.org/10.1063/1.2770708

 Krack, M. 
 THEORETICAL CHEMISTRY ACCOUNTS, 114 (1-3), 145-152 (2005). 
 Pseudopotentials for H to Kr optimized for gradient-corrected
 exchange-correlation functionals.
 https://doi.org/10.1007/s00214-005-0655-y

 VandeVondele, J; Krack, M; Mohamed, F; Parrinello, M; Chassaing, T;
 Hutter, J. COMPUTER PHYSICS COMMUNICATIONS, 167 (2), 103-128 (2005). 
 QUICKSTEP: Fast and accurate density functional calculations using a
 mixed Gaussian and plane waves approach.
 https://doi.org/10.1016/j.cpc.2004.12.014

 Frigo, M; Johnson, SG. 
 PROCEEDINGS OF THE IEEE, 93 (2), 216-231 (2005). 
 The design and implementation of FFTW3.
 https://doi.org/10.1109/JPROC.2004.840301

 VandeVondele, J; Hutter, J. 
 JOURNAL OF CHEMICAL PHYSICS, 118 (10), 4365-4369 (2003). 
 An efficient orbital transformation method for electronic structure
 calculations.
 https://doi.org/10.1063/1.1543154

 Hartwigsen, C; Goedecker, S; Hutter, J. 
 PHYSICAL REVIEW B, 58 (7), 3641-3662 (1998). 
 Relativistic separable dual-space Gaussian pseudopotentials from H to Rn.
 https://doi.org/10.1103/PhysRevB.58.3641

 Dudarev, SL; Botton, GA; Savrasov, SY; Humphreys, CJ; Sutton, AP. 
 PHYSICAL REVIEW B, 57 (3), 1505-1509 (1998). 
 Electron-energy-loss spectra and the structural stability of
 nickel oxide: An LSDA+U study.
 https://doi.org/10.1103/PhysRevB.57.1505

 Lippert, G; Hutter, J; Parrinello, M. 
 MOLECULAR PHYSICS, 92 (3), 477-487 (1997). 
 A hybrid Gaussian and plane wave density functional scheme.
 https://doi.org/10.1080/002689797170220

 Dudarev, SL; Manh, DN; Sutton, AP. 
 PHILOSOPHICAL MAGAZINE B, 75 (5), 613-628 (1997). 
 Effect of Mott-Hubbard correlations on the electronic
 structure and structural stability of uranium dioxide.
 https://doi.org/10.1080/13642819708202343

 Perdew, JP; Burke, K; Ernzerhof, M. 
 PHYSICAL REVIEW LETTERS, 77 (18), 3865-3868 (1996). 
 Generalized gradient approximation made simple.
 https://doi.org/10.1103/PhysRevLett.77.3865

 Goedecker, S; Teter, M; Hutter, J. 
 PHYSICAL REVIEW B, 54 (3), 1703-1710 (1996). 
 Separable dual-space Gaussian pseudopotentials.
 https://doi.org/10.1103/PhysRevB.54.1703


 -------------------------------------------------------------------------------
 -                                                                             -
 -                                T I M I N G                                  -
 -                                                                             -
 -------------------------------------------------------------------------------
 SUBROUTINE                       CALLS  ASD         SELF TIME        TOTAL TIME
                                MAXIMUM       AVERAGE  MAXIMUM  AVERAGE  MAXIMUM
 CP2K                                 1  1.0    0.176    0.217 4848.501 4848.505
 qs_energies                          2  2.0    0.017    0.020 4841.150 4841.163
 cdft_scf_loop                        2  3.0    0.001    0.002 4819.173 4819.180
 scf_env_do_scf                      12  4.0    0.004    0.013 4815.608 4815.612
 scf_env_do_scf_inner_loop          632  5.0    0.020    0.039 4627.820 4630.295
 qs_rho_update_rho_low              634  6.0    0.006    0.007 2285.037 2285.352
 calculate_rho_elec                1268  7.0    1.748    1.769 2285.031 2285.346
 qs_ks_update_qs_env                648  6.0    0.007    0.007 2180.870 2181.437
 rebuild_ks_matrix                  632  7.0    0.004    0.005 2179.199 2179.769
 qs_ks_build_kohn_sham_matrix       632  8.0    0.172    0.566 2179.195 2179.766
 grid_collocate_task_list          1268  8.0 1904.068 2037.566 1904.068 2037.566
 sum_up_and_integrate               322  9.0    5.369    6.224 1152.982 1153.124
 integrate_v_rspace                 646 10.0    0.036    0.040 1151.167 1151.480
 grid_integrate_task_list           646 11.0  929.825  999.603  929.825  999.603
 plus_u                             632  9.0    0.033    0.039  705.692  705.747
 lowdin                             632 10.0    0.495    1.740  705.659  705.716
 dbcsr_multiply_generic           15894 11.1    1.372    1.689  563.819  573.471
 multiply_cannon                  15894 12.1    2.424    2.669  461.029  476.022
 multiply_cannon_loop             15894 13.1    3.025    3.168  426.634  463.054
 density_rs2pw                     1268  8.0    0.137    0.154  361.434  454.648
 rs_pw_transfer                    9584 10.0    0.134    0.157  316.862  409.774
 multiply_cannon_multrec         127152 14.1  338.798  373.055  339.043  373.285
 cp_gemm                           1436 10.7    0.006    0.007  322.259  322.500
 cp_gemm_fm_gemm                   1436 11.7    0.008    0.010  322.253  322.493
 cp_fm_gemm                        1436 12.7  322.245  322.484  322.245  322.484
 cp_dbcsr_sm_fm_multiply           1984 10.9    0.096    0.132  296.794  298.389
 mp_waitany                      276596 12.0  180.702  276.755  180.702  276.755
 rs_pw_transfer_RS2PW_250          1278 10.0   20.559   21.960  179.009  270.726
 qs_scf_new_mos                     632  6.0    0.005    0.006  253.491  254.052
 qs_scf_loop_do_ot                  632  7.0    0.057    0.182  253.486  254.047
 qs_vxc_create                      632  9.0    0.017    0.021  243.001  243.015
 cp_dbcsr_sm_fm_multiply_core      1984 11.9    0.094    0.257  220.763  228.610
 ot_scf_mini                        632  8.0    0.229    0.503  214.567  215.023
 pw_transfer                      12426  9.9    1.281    1.402  194.117  195.619
 fft_wrap_pw1pw2                  11162 10.9    0.153    0.222  188.313  189.687
 init_scf_loop                       16  5.0    0.002    0.003  185.745  185.801
 mp_alltoall_d11v                 33582 13.6  121.479  166.583  121.479  166.583
 pw_nn_compose_r                   7632 12.9  142.375  151.193  163.322  165.376
 xc_vxc_pw_create                   322 10.0   16.047   16.478  164.482  164.490
 fft_wrap_pw1pw2_250               3506 11.5   17.700   18.288  162.225  163.673
 xc_rho_set_and_dset_create         632 11.0   11.528   11.937  159.522  162.928
 fft3d_ps                         11162 12.9   71.625   73.641  141.095  143.623
 potential_pw2rs                    646 11.0    0.191    0.211  137.508  137.943
 qs_ot_get_orbitals_ref            1264  9.0    0.036    0.062  131.762  132.001
 rs_gather_matrices                 646 11.0    1.295    1.772   83.798  128.953
 xc_pw_derive                      5724 12.0    0.045    0.059  118.260  120.696
 mp_waitall_1                   1652497 14.5   98.704  110.309   98.704  110.309
 -------------------------------------------------------------------------------

 The number of warnings for this run is : 98
 
 -------------------------------------------------------------------------------
  **** **** ******  **  PROGRAM ENDED AT                 2023-09-10 12:08:54.763
 ***** ** ***  *** **   PROGRAM RAN ON                                    node77
 **    ****   ******    PROGRAM RAN BY                                      wyin
 ***** **    ** ** **   PROGRAM PROCESS ID                                  2267
  **** **  *******  **  PROGRAM STOPPED IN /home/wyin/bozai/job/3-slab/slab+H2O/
                                           1H2O/Hab/2-Ti40-44
