 *******************************************************************************
 *                            RESTART INFORMATION                              *
 *******************************************************************************
 *                                                                             *
 *    RESTART FILE NAME: PROJECT-1.restart                                     *
 *                                                                             *
 * RESTARTED QUANTITIES:                                                       *
 *                       CELL                                                  *
 *                       COORDINATES                                           *
 *                       RANDOM NUMBER GENERATOR                               *
 *                       VELOCITIES                                            *
 *                       GEO_OPT COUNTERS                                      *
 *                       CELL_OPT COUNTERS                                     *
 *                       PARTICLE THERMOSTAT                                   *
 *                       REAL TIME PROPAGATION                                 *
 *                       PINT BEAD POSITIONS                                   *
 *                       PINT BEAD VELOCITIES                                  *
 *                       PINT NOSE THERMOSTAT                                  *
 *                       PINT GLE THERMOSTAT                                   *
 *                       HELIUM BEAD POSITIONS                                 *
 *                       HELIUM PERMUTATION STATE                              *
 *                       HELIUM FORCES ON SOLUTE                               *
 *                       HELIUM RNG STATE                                      *
 *******************************************************************************

 DBCSR| CPU Multiplication driver                                           XSMM
 DBCSR| Multrec recursion limit                                              512
 DBCSR| Multiplication stack size                                           1000
 DBCSR| Maximum elements for images                                    UNLIMITED
 DBCSR| Multiplicative factor virtual images                                   1
 DBCSR| Use multiplication densification                                       T
 DBCSR| Multiplication size stacks                                             3
 DBCSR| Use memory pool for CPU allocation                                     F
 DBCSR| Number of 3D layers                                               SINGLE
 DBCSR| Use MPI memory allocation                                              F
 DBCSR| Use RMA algorithm                                                      F
 DBCSR| Use Communication thread                                               T
 DBCSR| Communication thread load                                             87
 DBCSR| MPI: My node id                                                        0
 DBCSR| MPI: Number of nodes                                                  40
 DBCSR| OMP: Current number of threads                                         1
 DBCSR| OMP: Max number of threads                                             1
 DBCSR| Split modifier for TAS multiplication algorithm                  1.0E+00


  **** **** ******  **  PROGRAM STARTED AT               2023-04-30 12:31:09.745
 ***** ** ***  *** **   PROGRAM STARTED ON                                node10
 **    ****   ******    PROGRAM STARTED BY                                  wyin
 ***** **    ** ** **   PROGRAM PROCESS ID                                  1888
  **** **  *******  **  PROGRAM STARTED IN /home/wyin/bozai/job/1-TiO2/2-slab-11
                                           0/1-pure/3-Marcus/1-localization/1flo
                                           or/1-18

 CP2K| version string:                                       CP2K version 2022.1
 CP2K| source code revision number:                                  git:2caeb6f
 CP2K| cp2kflags: omp libint fftw3 libxc elpa parallel mpi3 scalapack xsmm plume
 CP2K|            d2 spglib mkl libvori libbqb
 CP2K| is freely available from                            https://www.cp2k.org/
 CP2K| Program compiled at                          Mon Mar 13 16:18:57 CET 2023
 CP2K| Program compiled on                                               login02
 CP2K| Program compiled for                                                local
 CP2K| Data directory path                   /home/wyin/package/cp2k-2022.1/data
 CP2K| Input file name                                                 input.inp
 
 GLOBAL| Force Environment number                                              1
 GLOBAL| Basis set file name            /home/wyin/bozai/Bootstrap/BASIS_SET/BAS
 GLOBAL| Potential file name            /home/wyin/bozai/Bootstrap/BASIS_SET/GTH
 GLOBAL| MM Potential file name                                     MM_POTENTIAL
 GLOBAL| Coordinate file name                                          NEXT2.xyz
 GLOBAL| Method name                                                        CP2K
 GLOBAL| Project name                                                    PROJECT
 GLOBAL| Run type                                                        GEO_OPT
 GLOBAL| FFT library                                                       FFTW3
 GLOBAL| Diagonalization library                                            ELPA
 GLOBAL| Minimum number of eigenvectors for ELPA usage                        16
 GLOBAL| Orthonormality check for eigenvectors                          DISABLED
 GLOBAL| Matrix multiplication library                                 ScaLAPACK
 GLOBAL| All-to-all communication in single precision                          F
 GLOBAL| FFTs using library dependent lengths                                  F
 GLOBAL| Grid backend                                                       AUTO
 GLOBAL| Global print level                                               MEDIUM
 GLOBAL| MPI I/O enabled                                                       T
 GLOBAL| Total number of message passing processes                            40
 GLOBAL| Number of threads for this process                                    1
 GLOBAL| This output is from process                                           0
 GLOBAL| Stack size for threads created by OpenMP (OMP_STACKSIZE)        default
 GLOBAL| CPU model name                Intel(R) Xeon(R) CPU E5-2640 v4 @ 2.40GHz
 GLOBAL| CPUID                                                              1002
 GLOBAL| Compiled for CPUID                                                 1001

 *** HINT in environment.F:869 :: The compiler target flags (x86_avx) used ***
 *** to build this binary cannot exploit all extensions of this CPU model  ***
 *** (x86_avx2). Consider compiler target flags as part of FCFLAGS and     ***
 *** CFLAGS (ARCH file).                                                   ***


 MEMORY| system memory details [Kb]
 MEMORY|                        rank 0           min           max       average
 MEMORY| MemTotal            131745360     131745360     131745444     131745402
 MEMORY| MemFree             126865344     126865344     126873140     126869242
 MEMORY| Buffers                 16348         16348         18048         17198
 MEMORY| Cached                 340192        331824        340192        336008
 MEMORY| Slab                   134480        132768        134480        133624
 MEMORY| SReclaimable            44076         42632         44076         43354
 MEMORY| MemLikelyFree       127265960     127265644     127265960     127265802


 *** Fundamental physical constants (SI units) ***

 *** Literature: B. J. Mohr and B. N. Taylor,
 ***             CODATA recommended values of the fundamental physical
 ***             constants: 2006, Web Version 5.1
 ***             http://physics.nist.gov/constants

 Speed of light in vacuum [m/s]                             2.99792458000000E+08
 Magnetic constant or permeability of vacuum [N/A**2]       1.25663706143592E-06
 Electric constant or permittivity of vacuum [F/m]          8.85418781762039E-12
 Planck constant (h) [J*s]                                  6.62606896000000E-34
 Planck constant (h-bar) [J*s]                              1.05457162825177E-34
 Elementary charge [C]                                      1.60217648700000E-19
 Electron mass [kg]                                         9.10938215000000E-31
 Electron g factor [ ]                                     -2.00231930436220E+00
 Proton mass [kg]                                           1.67262163700000E-27
 Fine-structure constant                                    7.29735253760000E-03
 Rydberg constant [1/m]                                     1.09737315685270E+07
 Avogadro constant [1/mol]                                  6.02214179000000E+23
 Boltzmann constant [J/K]                                   1.38065040000000E-23
 Atomic mass unit [kg]                                      1.66053878200000E-27
 Bohr radius [m]                                            5.29177208590000E-11

 *** Conversion factors ***

 [u] -> [a.u.]                                              1.82288848426455E+03
 [Angstrom] -> [Bohr] = [a.u.]                              1.88972613288564E+00
 [a.u.] = [Bohr] -> [Angstrom]                              5.29177208590000E-01
 [a.u.] -> [s]                                              2.41888432650478E-17
 [a.u.] -> [fs]                                             2.41888432650478E-02
 [a.u.] -> [J]                                              4.35974393937059E-18
 [a.u.] -> [N]                                              8.23872205491840E-08
 [a.u.] -> [K]                                              3.15774647902944E+05
 [a.u.] -> [kJ/mol]                                         2.62549961709828E+03
 [a.u.] -> [kcal/mol]                                       6.27509468713739E+02
 [a.u.] -> [Pa]                                             2.94210107994716E+13
 [a.u.] -> [bar]                                            2.94210107994716E+08
 [a.u.] -> [atm]                                            2.90362800883016E+08
 [a.u.] -> [eV]                                             2.72113838565563E+01
 [a.u.] -> [Hz]                                             6.57968392072181E+15
 [a.u.] -> [1/cm] (wave numbers)                            2.19474631370540E+05
 [a.u./Bohr**2] -> [1/cm]                                   5.14048714338585E+03
 

 CELL_TOP| Volume [angstrom^3]:                                      3844.865420
 CELL_TOP| Vector a [angstrom    12.994     0.000     0.000   |a| =    12.993800
 CELL_TOP| Vector b [angstrom     0.000    11.836     0.000   |b| =    11.836000
 CELL_TOP| Vector c [angstrom     0.000     0.000    25.000   |c| =    25.000000
 CELL_TOP| Angle (b,c), alpha [degree]:                                90.000000
 CELL_TOP| Angle (a,c), beta  [degree]:                                90.000000
 CELL_TOP| Angle (a,b), gamma [degree]:                                90.000000
 CELL_TOP| Numerically orthorhombic:                                         YES

 *** WARNING in atoms_input.F:123 :: Overwriting coordinates. Active    ***
 *** coordinates read from &COORD section. Active coordinates READ from ***
 *** &COORD section                                                     ***

 
 GENERATE|  Preliminary Number of Bonds generated:                             0
 GENERATE|  Achieved consistency in connectivity generation.

 CELL| Volume [angstrom^3]:                                          3844.865420
 CELL| Vector a [angstrom]:      12.994     0.000     0.000   |a| =    12.993800
 CELL| Vector b [angstrom]:       0.000    11.836     0.000   |b| =    11.836000
 CELL| Vector c [angstrom]:       0.000     0.000    25.000   |c| =    25.000000
 CELL| Angle (b,c), alpha [degree]:                                    90.000000
 CELL| Angle (a,c), beta  [degree]:                                    90.000000
 CELL| Angle (a,b), gamma [degree]:                                    90.000000
 CELL| Numerically orthorhombic:                                             YES

 CELL_REF| Volume [angstrom^3]:                                      3844.865420
 CELL_REF| Vector a [angstrom    12.994     0.000     0.000   |a| =    12.993800
 CELL_REF| Vector b [angstrom     0.000    11.836     0.000   |b| =    11.836000
 CELL_REF| Vector c [angstrom     0.000     0.000    25.000   |c| =    25.000000
 CELL_REF| Angle (b,c), alpha [degree]:                                90.000000
 CELL_REF| Angle (a,c), beta  [degree]:                                90.000000
 CELL_REF| Angle (a,b), gamma [degree]:                                90.000000
 CELL_REF| Numerically orthorhombic:                                         YES

 *******************************************************************************
 *******************************************************************************
 **                                                                           **
 **     #####                         ##              ##                      **
 **    ##   ##            ##          ##              ##                      **
 **   ##     ##                       ##            ######                    **
 **   ##     ##  ##   ##  ##   #####  ##  ##   ####   ##    #####    #####    **
 **   ##     ##  ##   ##  ##  ##      ## ##   ##      ##   ##   ##  ##   ##   **
 **   ##  ## ##  ##   ##  ##  ##      ####     ###    ##   ######   ######    **
 **    ##  ###   ##   ##  ##  ##      ## ##      ##   ##   ##       ##        **
 **     #######   #####   ##   #####  ##  ##  ####    ##    #####   ##        **
 **           ##                                                    ##        **
 **                                                                           **
 **                                                ... make the atoms dance   **
 **                                                                           **
 **            Copyright (C) by CP2K developers group (2000-2022)             **
 **                      J. Chem. Phys. 152, 194103 (2020)                    **
 **                                                                           **
 *******************************************************************************

 DFT| Spin unrestricted (spin-polarized) Kohn-Sham calculation               UKS
 DFT| Multiplicity                                                             2
 DFT| Number of spin states                                                    2
 DFT| Charge                                                                  -1
 DFT| Self-interaction correction (SIC)                                       NO
 DFT| Cutoffs: density                                              1.000000E-10
 DFT|          gradient                                             1.000000E-10
 DFT|          tau                                                  1.000000E-10
 DFT|          cutoff_smoothing_range                               0.000000E+00
 DFT| XC density smoothing                                                  NN10
 DFT| XC derivatives                                              SPLINE2_SMOOTH

 DFT+U| Method                                                            LOWDIN
 DFT+U| Check atomic kind information for details

 FUNCTIONAL| PBE:
 FUNCTIONAL| J.P.Perdew, K.Burke, M.Ernzerhof, Phys. Rev. Letter, vol. 77, n 18,
 FUNCTIONAL|  pp. 3865-3868, (1996){spin polarized}                             

 vdW POTENTIAL|                                                   Pair Potential
 vdW POTENTIAL|          DFT-D3 (Version 3.1)
 vdW POTENTIAL|          Potential Form: S. Grimme et al, JCP 132: 154104 (2010)
 vdW POTENTIAL|          Zero Damping
 vdW POTENTIAL|          Cutoff Radius [Bohr]:                             20.00
 vdW POTENTIAL|          s6 Scaling Factor:                               1.0000
 vdW POTENTIAL|          sr6 Scaling Factor:                              1.2170
 vdW POTENTIAL|          s8 Scaling Factor:                               0.7220
 vdW POTENTIAL|          Cutoff for CN calculation:                   0.1000E-05

 QS| Method:                                                                 GPW
 QS| Density plane wave grid type                        NON-SPHERICAL FULLSPACE
 QS| Number of grid levels:                                                    5
 QS| Density cutoff [a.u.]:                                                250.0
 QS| Using commensurate multigrids
 QS| Multi grid cutoff [a.u.]: 1) grid level                               250.0
 QS|                           2) grid level                                62.5
 QS|                           3) grid level                                15.6
 QS|                           4) grid level                                 3.9
 QS|                           5) grid level                                 1.0
 QS| Grid level progression factor:                                          4.0
 QS| Relative density cutoff [a.u.]:                                        20.0
 QS| Interaction thresholds: eps_pgf_orb:                                1.0E-06
 QS|                         eps_filter_matrix:                          0.0E+00
 QS|                         eps_core_charge:                            1.0E-14
 QS|                         eps_rho_gspace:                             1.0E-12
 QS|                         eps_rho_rspace:                             1.0E-12
 QS|                         eps_gvg_rspace:                             1.0E-06
 QS|                         eps_ppl:                                    1.0E-02
 QS|                         eps_ppnl:                                   1.0E-08


 ATOMIC KIND INFORMATION

  1. Atomic kind: Ti                                    Number of atoms:      64

     Orbital Basis Set                                        DZVP-MOLOPT-SR-GTH

       Number of orbital shell sets:                                           1
       Number of orbital shells:                                               8
       Number of primitive Cartesian functions:                                6
       Number of Cartesian basis functions:                                   31
       Number of spherical basis functions:                                   26
       Norm type:                                                              2

       Normalised Cartesian orbitals:

                        Set   Shell   Orbital            Exponent    Coefficient

                          1       1    2s                7.884570       0.015554
                                                         3.894698       0.963603
                                                         1.513589      -0.631435
                                                         0.596768      -0.343022
                                                         0.222222      -0.006534
                                                         0.077078       0.007652

                          1       2    3s                7.884570      -0.009340
                                                         3.894698       0.212624
                                                         1.513589      -0.258368
                                                         0.596768      -0.226206
                                                         0.222222       0.039438
                                                         0.077078       0.107179

                          1       3    4s                7.884570       0.276563
                                                         3.894698       0.105452
                                                         1.513589       0.085149
                                                         0.596768       0.882541
                                                         0.222222      -0.696223
                                                         0.077078       0.156638

                          1       4    3px               7.884570      -2.034794
                                                         3.894698       0.782008
                                                         1.513589       1.253903
                                                         0.596768       0.347823
                                                         0.222222       0.016778
                                                         0.077078      -0.000433
                          1       4    3py               7.884570      -2.034794
                                                         3.894698       0.782008
                                                         1.513589       1.253903
                                                         0.596768       0.347823
                                                         0.222222       0.016778
                                                         0.077078      -0.000433
                          1       4    3pz               7.884570      -2.034794
                                                         3.894698       0.782008
                                                         1.513589       1.253903
                                                         0.596768       0.347823
                                                         0.222222       0.016778
                                                         0.077078      -0.000433

                          1       5    4px               7.884570       0.376572
                                                         3.894698      -0.182875
                                                         1.513589      -0.474776
                                                         0.596768      -0.081757
                                                         0.222222       0.064432
                                                         0.077078       0.047279
                          1       5    4py               7.884570       0.376572
                                                         3.894698      -0.182875
                                                         1.513589      -0.474776
                                                         0.596768      -0.081757
                                                         0.222222       0.064432
                                                         0.077078       0.047279
                          1       5    4pz               7.884570       0.376572
                                                         3.894698      -0.182875
                                                         1.513589      -0.474776
                                                         0.596768      -0.081757
                                                         0.222222       0.064432
                                                         0.077078       0.047279

                          1       6    4dx2              7.884570       3.047350
                                                         3.894698       3.289529
                                                         1.513589       1.060616
                                                         0.596768       0.249930
                                                         0.222222       0.038806
                                                         0.077078       0.002319
                          1       6    4dxy              7.884570       5.278165
                                                         3.894698       5.697631
                                                         1.513589       1.837041
                                                         0.596768       0.432892
                                                         0.222222       0.067214
                                                         0.077078       0.004017
                          1       6    4dxz              7.884570       5.278165
                                                         3.894698       5.697631
                                                         1.513589       1.837041
                                                         0.596768       0.432892
                                                         0.222222       0.067214
                                                         0.077078       0.004017
                          1       6    4dy2              7.884570       3.047350
                                                         3.894698       3.289529
                                                         1.513589       1.060616
                                                         0.596768       0.249930
                                                         0.222222       0.038806
                                                         0.077078       0.002319
                          1       6    4dyz              7.884570       5.278165
                                                         3.894698       5.697631
                                                         1.513589       1.837041
                                                         0.596768       0.432892
                                                         0.222222       0.067214
                                                         0.077078       0.004017
                          1       6    4dz2              7.884570       3.047350
                                                         3.894698       3.289529
                                                         1.513589       1.060616
                                                         0.596768       0.249930
                                                         0.222222       0.038806
                                                         0.077078       0.002319

                          1       7    5dx2              7.884570      -2.119015
                                                         3.894698      -1.237751
                                                         1.513589      -0.746777
                                                         0.596768      -0.071514
                                                         0.222222       0.004086
                                                         0.077078       0.017595
                          1       7    5dxy              7.884570      -3.670241
                                                         3.894698      -2.143848
                                                         1.513589      -1.293455
                                                         0.596768      -0.123865
                                                         0.222222       0.007077
                                                         0.077078       0.030475
                          1       7    5dxz              7.884570      -3.670241
                                                         3.894698      -2.143848
                                                         1.513589      -1.293455
                                                         0.596768      -0.123865
                                                         0.222222       0.007077
                                                         0.077078       0.030475
                          1       7    5dy2              7.884570      -2.119015
                                                         3.894698      -1.237751
                                                         1.513589      -0.746777
                                                         0.596768      -0.071514
                                                         0.222222       0.004086
                                                         0.077078       0.017595
                          1       7    5dyz              7.884570      -3.670241
                                                         3.894698      -2.143848
                                                         1.513589      -1.293455
                                                         0.596768      -0.123865
                                                         0.222222       0.007077
                                                         0.077078       0.030475
                          1       7    5dz2              7.884570      -2.119015
                                                         3.894698      -1.237751
                                                         1.513589      -0.746777
                                                         0.596768      -0.071514
                                                         0.222222       0.004086
                                                         0.077078       0.017595

                          1       8    5fx3              7.884570      -0.342058
                                                         3.894698       0.375798
                                                         1.513589      -0.706469
                                                         0.596768      -0.229994
                                                         0.222222      -0.012723
                                                         0.077078       0.003932
                          1       8    5fx2y             7.884570      -0.764866
                                                         3.894698       0.840310
                                                         1.513589      -1.579712
                                                         0.596768      -0.514282
                                                         0.222222      -0.028450
                                                         0.077078       0.008792
                          1       8    5fx2z             7.884570      -0.764866
                                                         3.894698       0.840310
                                                         1.513589      -1.579712
                                                         0.596768      -0.514282
                                                         0.222222      -0.028450
                                                         0.077078       0.008792
                          1       8    5fxy2             7.884570      -0.764866
                                                         3.894698       0.840310
                                                         1.513589      -1.579712
                                                         0.596768      -0.514282
                                                         0.222222      -0.028450
                                                         0.077078       0.008792
                          1       8    5fxyz             7.884570      -1.324787
                                                         3.894698       1.455460
                                                         1.513589      -2.736142
                                                         0.596768      -0.890763
                                                         0.222222      -0.049276
                                                         0.077078       0.015229
                          1       8    5fxz2             7.884570      -0.764866
                                                         3.894698       0.840310
                                                         1.513589      -1.579712
                                                         0.596768      -0.514282
                                                         0.222222      -0.028450
                                                         0.077078       0.008792
                          1       8    5fy3              7.884570      -0.342058
                                                         3.894698       0.375798
                                                         1.513589      -0.706469
                                                         0.596768      -0.229994
                                                         0.222222      -0.012723
                                                         0.077078       0.003932
                          1       8    5fy2z             7.884570      -0.764866
                                                         3.894698       0.840310
                                                         1.513589      -1.579712
                                                         0.596768      -0.514282
                                                         0.222222      -0.028450
                                                         0.077078       0.008792
                          1       8    5fyz2             7.884570      -0.764866
                                                         3.894698       0.840310
                                                         1.513589      -1.579712
                                                         0.596768      -0.514282
                                                         0.222222      -0.028450
                                                         0.077078       0.008792
                          1       8    5fz3              7.884570      -0.342058
                                                         3.894698       0.375798
                                                         1.513589      -0.706469
                                                         0.596768      -0.229994
                                                         0.222222      -0.012723
                                                         0.077078       0.003932

       Atomic covalent radius [Angstrom]:                                  1.320

       Atomic van der Waals radius [Angstrom]:                             1.760

     GTH Potential information for                                   GTH-PBE-q12

       Description:                       Goedecker-Teter-Hutter pseudopotential
                                           Goedecker et al., PRB 54, 1703 (1996)
                                          Hartwigsen et al., PRB 58, 3641 (1998)
                                                      Krack, TCA 114, 145 (2005)

       Gaussian exponent of the core charge distribution:               3.462604
       Electronic configuration (s p d ...):                           4   6   2

       Parameters of the local part of the GTH pseudopotential:

                          rloc        C1          C2          C3          C4
                        0.380000    8.711442   -0.700287

       Parameters of the non-local part of the GTH pseudopotential:

                   l      r(l)      h(i,j,l)

                   0    0.337771    2.575264    3.692971
                                    3.692971   -4.767605
                   1    0.242531   -4.630541    8.870875
                                    8.870875  -10.496161
                   2    0.243317   -9.406653

     A DFT+U correction is applied to atoms of this atomic kind:
       Angular quantum momentum number L:                                      2
       U(eff) = (U - J) value in [eV]:                                     4.200

  2. Atomic kind: O                                     Number of atoms:     128

     Orbital Basis Set                                        DZVP-MOLOPT-SR-GTH

       Number of orbital shell sets:                                           1
       Number of orbital shells:                                               5
       Number of primitive Cartesian functions:                                5
       Number of Cartesian basis functions:                                   14
       Number of spherical basis functions:                                   13
       Norm type:                                                              2

       Normalised Cartesian orbitals:

                        Set   Shell   Orbital            Exponent    Coefficient

                          1       1    2s               10.389228       0.396646
                                                         3.849621       0.208811
                                                         1.388401      -0.301641
                                                         0.496955      -0.274061
                                                         0.162492      -0.033677

                          1       2    3s               10.389228       0.303673
                                                         3.849621       0.240943
                                                         1.388401      -0.313066
                                                         0.496955      -0.043055
                                                         0.162492       0.213991

                          1       3    3px              10.389228      -1.530415
                                                         3.849621      -1.371928
                                                         1.388401      -0.761951
                                                         0.496955      -0.253695
                                                         0.162492      -0.035541
                          1       3    3py              10.389228      -1.530415
                                                         3.849621      -1.371928
                                                         1.388401      -0.761951
                                                         0.496955      -0.253695
                                                         0.162492      -0.035541
                          1       3    3pz              10.389228      -1.530415
                                                         3.849621      -1.371928
                                                         1.388401      -0.761951
                                                         0.496955      -0.253695
                                                         0.162492      -0.035541

                          1       4    4px              10.389228      -0.565392
                                                         3.849621      -0.038231
                                                         1.388401      -0.382373
                                                         0.496955       0.179070
                                                         0.162492       0.122714
                          1       4    4py              10.389228      -0.565392
                                                         3.849621      -0.038231
                                                         1.388401      -0.382373
                                                         0.496955       0.179070
                                                         0.162492       0.122714
                          1       4    4pz              10.389228      -0.565392
                                                         3.849621      -0.038231
                                                         1.388401      -0.382373
                                                         0.496955       0.179070
                                                         0.162492       0.122714

                          1       5    4dx2             10.389228       1.867377
                                                         3.849621       0.670994
                                                         1.388401       1.353441
                                                         0.496955       0.273538
                                                         0.162492       0.006620
                          1       5    4dxy             10.389228       3.234392
                                                         3.849621       1.162195
                                                         1.388401       2.344229
                                                         0.496955       0.473781
                                                         0.162492       0.011466
                          1       5    4dxz             10.389228       3.234392
                                                         3.849621       1.162195
                                                         1.388401       2.344229
                                                         0.496955       0.473781
                                                         0.162492       0.011466
                          1       5    4dy2             10.389228       1.867377
                                                         3.849621       0.670994
                                                         1.388401       1.353441
                                                         0.496955       0.273538
                                                         0.162492       0.006620
                          1       5    4dyz             10.389228       3.234392
                                                         3.849621       1.162195
                                                         1.388401       2.344229
                                                         0.496955       0.473781
                                                         0.162492       0.011466
                          1       5    4dz2             10.389228       1.867377
                                                         3.849621       0.670994
                                                         1.388401       1.353441
                                                         0.496955       0.273538
                                                         0.162492       0.006620

       Atomic covalent radius [Angstrom]:                                  0.730

       Atomic van der Waals radius [Angstrom]:                             1.520

     GTH Potential information for                                    GTH-PBE-q6

       Description:                       Goedecker-Teter-Hutter pseudopotential
                                           Goedecker et al., PRB 54, 1703 (1996)
                                          Hartwigsen et al., PRB 58, 3641 (1998)
                                                      Krack, TCA 114, 145 (2005)

       Gaussian exponent of the core charge distribution:               8.360253
       Electronic configuration (s p d ...):                               2   4

       Parameters of the local part of the GTH pseudopotential:

                          rloc        C1          C2          C3          C4
                        0.244554  -16.667215    2.487311

       Parameters of the non-local part of the GTH pseudopotential:

                   l      r(l)      h(i,j,l)

                   0    0.220956   18.337458
                   1    0.211332


 MOLECULE KIND INFORMATION


 All atoms are their own molecule, skipping detailed information


 TOTAL NUMBERS AND MAXIMUM NUMBERS

  Total number of            - Atomic kinds:                                   2
                             - Atoms:                                        192
                             - Shell sets:                                   192
                             - Shells:                                      1152
                             - Primitive Cartesian functions:               1024
                             - Cartesian basis functions:                   3776
                             - Spherical basis functions:                   3328

  Maximum angular momentum of- Orbital basis functions:                        3
                             - Local part of the GTH pseudopotential:          2
                             - Non-local part of the GTH pseudopotential:      3


 MODULE QUICKSTEP:  ATOMIC COORDINATES IN angstrom

 Atom  Kind  Element       X           Y           Z          Z(eff)       Mass
    1   1 Ti  22       1.623646    1.479503    7.808268      12.0000     47.8670
    2   1 Ti  22       4.872675    1.490180   17.206570      12.0000     47.8670
    3   1 Ti  22       4.872675    1.479722   10.658929      12.0000     47.8670
    4   1 Ti  22       1.620761    1.478778   14.391111      12.0000     47.8670
    5   1 Ti  22       4.872675    0.000644    7.341560      12.0000     47.8670
    6   1 Ti  22       1.628714   -0.001984   17.701896      12.0000     47.8670
    7   1 Ti  22       1.623576    0.000393   11.023584      12.0000     47.8670
    8   1 Ti  22       4.872675    0.008709   13.990402      12.0000     47.8670
    9   1 Ti  22       8.121704    1.479503    7.808268      12.0000     47.8670
   10   1 Ti  22      11.369575    1.485342   17.199253      12.0000     47.8670
   11   1 Ti  22      11.369575    1.479884   10.642335      12.0000     47.8670
   12   1 Ti  22       8.124589    1.478778   14.391111      12.0000     47.8670
   13   1 Ti  22      11.369575   -0.000031    7.327291      12.0000     47.8670
   14   1 Ti  22       8.116636   -0.001984   17.701896      12.0000     47.8670
   15   1 Ti  22       8.121774    0.000393   11.023584      12.0000     47.8670
   16   1 Ti  22      11.369575    0.000314   13.986153      12.0000     47.8670
   17   1 Ti  22       1.623366    4.438500    7.808544      12.0000     47.8670
   18   1 Ti  22       4.872675    4.438500   17.215986      12.0000     47.8670
   19   1 Ti  22       4.872675    4.438500   10.657800      12.0000     47.8670
   20   1 Ti  22       1.627915    4.438499   14.397124      12.0000     47.8670
   21   1 Ti  22       4.872675    2.959469    7.342326      12.0000     47.8670
   22   1 Ti  22       1.652248    2.951711   17.711915      12.0000     47.8670
   23   1 Ti  22       1.623847    2.959347   11.025044      12.0000     47.8670
   24   1 Ti  22       4.872675    2.974085   14.006046      12.0000     47.8670
   25   1 Ti  22       8.121984    4.438499    7.808544      12.0000     47.8670
   26   1 Ti  22      11.369575    4.438500   17.201736      12.0000     47.8670
   27   1 Ti  22      11.369575    4.438500   10.642418      12.0000     47.8670
   28   1 Ti  22       8.117434    4.438499   14.397124      12.0000     47.8670
   29   1 Ti  22      11.369575    2.959038    7.327497      12.0000     47.8670
   30   1 Ti  22       8.093102    2.951711   17.711915      12.0000     47.8670
   31   1 Ti  22       8.121503    2.959347   11.025044      12.0000     47.8670
   32   1 Ti  22      11.369575    2.960556   13.991093      12.0000     47.8670
   33   1 Ti  22       1.623646    7.397496    7.808268      12.0000     47.8670
   34   1 Ti  22       4.872675    7.386819   17.206570      12.0000     47.8670
   35   1 Ti  22       4.872675    7.397277   10.658929      12.0000     47.8670
   36   1 Ti  22       1.620761    7.398221   14.391111      12.0000     47.8670
   37   1 Ti  22       4.872675    5.917530    7.342326      12.0000     47.8670
   38   1 Ti  22       1.652248    5.925288   17.711915      12.0000     47.8670
   39   1 Ti  22       1.623847    5.917652   11.025044      12.0000     47.8670
   40   1 Ti  22       4.872675    5.902914   14.006046      12.0000     47.8670
   41   1 Ti  22       8.121704    7.397496    7.808268      12.0000     47.8670
   42   1 Ti  22      11.369575    7.391657   17.199253      12.0000     47.8670
   43   1 Ti  22      11.369575    7.397115   10.642335      12.0000     47.8670
   44   1 Ti  22       8.124589    7.398221   14.391111      12.0000     47.8670
   45   1 Ti  22      11.369575    5.917962    7.327497      12.0000     47.8670
   46   1 Ti  22       8.093102    5.925288   17.711915      12.0000     47.8670
   47   1 Ti  22       8.121503    5.917652   11.025044      12.0000     47.8670
   48   1 Ti  22      11.369575    5.916443   13.991093      12.0000     47.8670
   49   1 Ti  22       1.623312   10.356500    7.807937      12.0000     47.8670
   50   1 Ti  22       4.872675   10.356500   17.199499      12.0000     47.8670
   51   1 Ti  22       4.872675   10.356500   10.656018      12.0000     47.8670
   52   1 Ti  22       1.622367   10.356499   14.386504      12.0000     47.8670
   53   1 Ti  22       4.872675    8.876355    7.341560      12.0000     47.8670
   54   1 Ti  22       1.628714    8.878984   17.701896      12.0000     47.8670
   55   1 Ti  22       1.623576    8.876606   11.023584      12.0000     47.8670
   56   1 Ti  22       4.872675    8.868290   13.990402      12.0000     47.8670
   57   1 Ti  22       8.122038   10.356500    7.807937      12.0000     47.8670
   58   1 Ti  22      11.369575   10.356500   17.195197      12.0000     47.8670
   59   1 Ti  22      11.369575   10.356500   10.642163      12.0000     47.8670
   60   1 Ti  22       8.122982   10.356499   14.386504      12.0000     47.8670
   61   1 Ti  22      11.369575    8.877030    7.327291      12.0000     47.8670
   62   1 Ti  22       8.116636    8.878984   17.701896      12.0000     47.8670
   63   1 Ti  22       8.121774    8.876606   11.023584      12.0000     47.8670
   64   1 Ti  22      11.369575    8.876684   13.986153      12.0000     47.8670
   65   2 O    8       1.622643    1.479277    9.603849       6.0000     15.9994
   66   2 O    8       1.607709    1.470459   16.207186       6.0000     15.9994
   67   2 O    8       4.872675    1.479960   15.383640       6.0000     15.9994
   68   2 O    8       4.872675    1.478561    8.819580       6.0000     15.9994
   69   2 O    8       4.872675    1.479751    6.266873       6.0000     15.9994
   70   2 O    8       4.872675    1.477853   12.827076       6.0000     15.9994
   71   2 O    8       1.589476    1.466178   18.780748       6.0000     15.9994
   72   2 O    8       1.615576    1.479259   12.162600       6.0000     15.9994
   73   2 O    8       0.402635    0.000125    7.449315       6.0000     15.9994
   74   2 O    8       3.590615   -0.000858   10.834849       6.0000     15.9994
   75   2 O    8       2.842908   -0.000084    7.452926       6.0000     15.9994
   76   2 O    8       6.154734   -0.000858   10.834849       6.0000     15.9994
   77   2 O    8       6.100836   -0.020262   17.566232       6.0000     15.9994
   78   2 O    8       2.896287   -0.000688   14.171333       6.0000     15.9994
   79   2 O    8       3.644514   -0.020262   17.566232       6.0000     15.9994
   80   2 O    8       0.341545   -0.000286   14.166227       6.0000     15.9994
   81   2 O    8       8.122707    1.479277    9.603849       6.0000     15.9994
   82   2 O    8       8.137641    1.470459   16.207186       6.0000     15.9994
   83   2 O    8      11.369575    1.479476   15.391378       6.0000     15.9994
   84   2 O    8      11.369575    1.479759    8.808428       6.0000     15.9994
   85   2 O    8      11.369575    1.479582    6.252109       6.0000     15.9994
   86   2 O    8      11.369575    1.483217   12.830538       6.0000     15.9994
   87   2 O    8       8.155874    1.466178   18.780748       6.0000     15.9994
   88   2 O    8       8.129774    1.479259   12.162600       6.0000     15.9994
   89   2 O    8       6.902442   -0.000084    7.452926       6.0000     15.9994
   90   2 O    8      10.091293    0.000318   10.829579       6.0000     15.9994
   91   2 O    8       9.342715    0.000125    7.449315       6.0000     15.9994
   92   2 O    8      12.647856    0.000318   10.829579       6.0000     15.9994
   93   2 O    8      12.587001   -0.001874   17.549849       6.0000     15.9994
   94   2 O    8       9.403805   -0.000286   14.166227       6.0000     15.9994
   95   2 O    8      10.152149   -0.001874   17.549849       6.0000     15.9994
   96   2 O    8       6.849062   -0.000688   14.171333       6.0000     15.9994
   97   2 O    8       1.622437    4.438500    9.604155       6.0000     15.9994
   98   2 O    8       1.648092    4.438500   16.215886       6.0000     15.9994
   99   2 O    8       4.872675    4.438499   15.344024       6.0000     15.9994
  100   2 O    8       4.872675    4.438500    8.817985       6.0000     15.9994
  101   2 O    8       4.872675    4.438499    6.266639       6.0000     15.9994
  102   2 O    8       4.872675    4.438500   12.811958       6.0000     15.9994
  103   2 O    8       1.630850    4.438500   18.777734       6.0000     15.9994
  104   2 O    8       1.620015    4.438499   12.163138       6.0000     15.9994
  105   2 O    8       0.402716    2.959014    7.449634       6.0000     15.9994
  106   2 O    8       3.590588    2.958011   10.832765       6.0000     15.9994
  107   2 O    8       2.842949    2.959014    7.453108       6.0000     15.9994
  108   2 O    8       6.154762    2.958011   10.832765       6.0000     15.9994
  109   2 O    8       6.127672    2.861873   17.594543       6.0000     15.9994
  110   2 O    8       2.894411    2.954272   14.168044       6.0000     15.9994
  111   2 O    8       3.617678    2.861873   17.594543       6.0000     15.9994
  112   2 O    8       0.343964    2.963327   14.176107       6.0000     15.9994
  113   2 O    8       8.122913    4.438499    9.604155       6.0000     15.9994
  114   2 O    8       8.097258    4.438500   16.215886       6.0000     15.9994
  115   2 O    8      11.369575    4.438499   15.392620       6.0000     15.9994
  116   2 O    8      11.369575    4.438500    8.808386       6.0000     15.9994
  117   2 O    8      11.369575    4.438500    6.252125       6.0000     15.9994
  118   2 O    8      11.369575    4.438499   12.830816       6.0000     15.9994
  119   2 O    8       8.114499    4.438500   18.777734       6.0000     15.9994
  120   2 O    8       8.125335    4.438499   12.163138       6.0000     15.9994
  121   2 O    8       6.902401    2.959014    7.453108       6.0000     15.9994
  122   2 O    8      10.090860    2.959423   10.829750       6.0000     15.9994
  123   2 O    8       9.342634    2.959014    7.449634       6.0000     15.9994
  124   2 O    8      12.648289    2.959423   10.829750       6.0000     15.9994
  125   2 O    8      12.590274    2.959972   17.549759       6.0000     15.9994
  126   2 O    8       9.401386    2.963327   14.176107       6.0000     15.9994
  127   2 O    8      10.148875    2.959972   17.549759       6.0000     15.9994
  128   2 O    8       6.850939    2.954272   14.168044       6.0000     15.9994
  129   2 O    8       1.622643    7.397722    9.603849       6.0000     15.9994
  130   2 O    8       1.607709    7.406540   16.207186       6.0000     15.9994
  131   2 O    8       4.872675    7.397039   15.383640       6.0000     15.9994
  132   2 O    8       4.872675    7.398438    8.819580       6.0000     15.9994
  133   2 O    8       4.872675    7.397248    6.266873       6.0000     15.9994
  134   2 O    8       4.872675    7.399146   12.827076       6.0000     15.9994
  135   2 O    8       1.589476    7.410821   18.780748       6.0000     15.9994
  136   2 O    8       1.615576    7.397740   12.162600       6.0000     15.9994
  137   2 O    8       0.402716    5.917986    7.449634       6.0000     15.9994
  138   2 O    8       3.590588    5.918988   10.832765       6.0000     15.9994
  139   2 O    8       2.842949    5.917985    7.453108       6.0000     15.9994
  140   2 O    8       6.154762    5.918988   10.832765       6.0000     15.9994
  141   2 O    8       6.127672    6.015127   17.594542       6.0000     15.9994
  142   2 O    8       2.894411    5.922727   14.168044       6.0000     15.9994
  143   2 O    8       3.617678    6.015127   17.594543       6.0000     15.9994
  144   2 O    8       0.343964    5.913672   14.176107       6.0000     15.9994
  145   2 O    8       8.122707    7.397722    9.603849       6.0000     15.9994
  146   2 O    8       8.137641    7.406540   16.207186       6.0000     15.9994
  147   2 O    8      11.369575    7.397523   15.391378       6.0000     15.9994
  148   2 O    8      11.369575    7.397240    8.808428       6.0000     15.9994
  149   2 O    8      11.369575    7.397417    6.252109       6.0000     15.9994
  150   2 O    8      11.369575    7.393781   12.830538       6.0000     15.9994
  151   2 O    8       8.155874    7.410821   18.780748       6.0000     15.9994
  152   2 O    8       8.129774    7.397740   12.162600       6.0000     15.9994
  153   2 O    8       6.902401    5.917985    7.453108       6.0000     15.9994
  154   2 O    8      10.090860    5.917576   10.829750       6.0000     15.9994
  155   2 O    8       9.342634    5.917985    7.449634       6.0000     15.9994
  156   2 O    8      12.648289    5.917576   10.829750       6.0000     15.9994
  157   2 O    8      12.590274    5.917028   17.549759       6.0000     15.9994
  158   2 O    8       9.401386    5.913672   14.176107       6.0000     15.9994
  159   2 O    8      10.148875    5.917028   17.549759       6.0000     15.9994
  160   2 O    8       6.850939    5.922727   14.168044       6.0000     15.9994
  161   2 O    8       1.621872   10.356500    9.603497       6.0000     15.9994
  162   2 O    8       1.608857   10.356500   16.203706       6.0000     15.9994
  163   2 O    8       4.872675   10.356500   15.389178       6.0000     15.9994
  164   2 O    8       4.872675   10.356500    8.819286       6.0000     15.9994
  165   2 O    8       4.872675   10.356499    6.267193       6.0000     15.9994
  166   2 O    8       4.872675   10.356499   12.832440       6.0000     15.9994
  167   2 O    8       1.604126   10.356500   18.775186       6.0000     15.9994
  168   2 O    8       1.617770   10.356499   12.161956       6.0000     15.9994
  169   2 O    8       0.402635    8.876874    7.449315       6.0000     15.9994
  170   2 O    8       3.590615    8.877857   10.834849       6.0000     15.9994
  171   2 O    8       2.842908    8.877083    7.452926       6.0000     15.9994
  172   2 O    8       6.154734    8.877857   10.834849       6.0000     15.9994
  173   2 O    8       6.100836    8.897261   17.566232       6.0000     15.9994
  174   2 O    8       2.896287    8.877687   14.171333       6.0000     15.9994
  175   2 O    8       3.644514    8.897261   17.566232       6.0000     15.9994
  176   2 O    8       0.341545    8.877285   14.166227       6.0000     15.9994
  177   2 O    8       8.123477   10.356499    9.603497       6.0000     15.9994
  178   2 O    8       8.136492   10.356500   16.203706       6.0000     15.9994
  179   2 O    8      11.369575   10.356499   15.387506       6.0000     15.9994
  180   2 O    8      11.369575   10.356500    8.808041       6.0000     15.9994
  181   2 O    8      11.369575   10.356500    6.251877       6.0000     15.9994
  182   2 O    8      11.369575   10.356500   12.827107       6.0000     15.9994
  183   2 O    8       8.141224   10.356500   18.775186       6.0000     15.9994
  184   2 O    8       8.127580   10.356499   12.161956       6.0000     15.9994
  185   2 O    8       6.902442    8.877083    7.452926       6.0000     15.9994
  186   2 O    8      10.091293    8.876681   10.829579       6.0000     15.9994
  187   2 O    8       9.342715    8.876874    7.449315       6.0000     15.9994
  188   2 O    8      12.647856    8.876681   10.829579       6.0000     15.9994
  189   2 O    8      12.587001    8.878874   17.549849       6.0000     15.9994
  190   2 O    8       9.403805    8.877285   14.166227       6.0000     15.9994
  191   2 O    8      10.152149    8.878874   17.549849       6.0000     15.9994
  192   2 O    8       6.849062    8.877687   14.171333       6.0000     15.9994




 SCF PARAMETERS         Density guess:                                   RESTART
                        --------------------------------------------------------
                        max_scf:                                             100
                        max_scf_history:                                       0
                        max_diis:                                              4
                        --------------------------------------------------------
                        eps_scf:                                        5.00E-07
                        eps_scf_history:                                0.00E+00
                        eps_diis:                                       1.00E-01
                        eps_eigval:                                     1.00E-05
                        --------------------------------------------------------
                        level_shift [a.u.]:                             0.000000
                        --------------------------------------------------------
                        Outer loop SCF in use 
                        No variables optimised in outer loop
                        eps_scf                                         5.00E-07
                        max_scf                                               20
                        DIIS optimization
                        DIIS buffer length                                     3
                        step_size                                       1.50E-01

 PW_GRID| Information for grid number                                          1
 PW_GRID| Grid distributed over                                    40 processors
 PW_GRID| Real space group dimensions                                    40    1
 PW_GRID| the grid is blocked:                                                NO
 PW_GRID| Cutoff [a.u.]                                                    250.0
 PW_GRID| spherical cutoff:                                                   NO
 PW_GRID|   Bounds   1            -96      95                Points:         192
 PW_GRID|   Bounds   2            -96      95                Points:         192
 PW_GRID|   Bounds   3           -192     191                Points:         384
 PW_GRID| Volume element (a.u.^3)  0.1833E-02     Volume (a.u.^3)     25946.4383
 PW_GRID| Grid span                                                    FULLSPACE
 PW_GRID|   Distribution                         Average         Max         Min
 PW_GRID|   G-Vectors                           353894.4      354048      353856
 PW_GRID|   G-Rays                                1843.2        1844        1843
 PW_GRID|   Real Space Points                   353894.4      368640      294912

 PW_GRID| Information for grid number                                          2
 PW_GRID| Number of the reference grid                                         1
 PW_GRID| Grid distributed over                                    40 processors
 PW_GRID| Real space group dimensions                                    40    1
 PW_GRID| the grid is blocked:                                                NO
 PW_GRID| Cutoff [a.u.]                                                     62.5
 PW_GRID| spherical cutoff:                                                   NO
 PW_GRID|   Bounds   1            -48      47                Points:          96
 PW_GRID|   Bounds   2            -48      47                Points:          96
 PW_GRID|   Bounds   3            -96      95                Points:         192
 PW_GRID| Volume element (a.u.^3)  0.1466E-01     Volume (a.u.^3)     25946.4383
 PW_GRID| Grid span                                                    FULLSPACE
 PW_GRID|   Distribution                         Average         Max         Min
 PW_GRID|   G-Vectors                            44236.8       45408       43296
 PW_GRID|   G-Rays                                 460.8         473         451
 PW_GRID|   Real Space Points                    44236.8       55296       36864

 PW_GRID| Information for grid number                                          3
 PW_GRID| Number of the reference grid                                         1
 PW_GRID| Grid distributed over                                    40 processors
 PW_GRID| Real space group dimensions                                    40    1
 PW_GRID| the grid is blocked:                                                NO
 PW_GRID| Cutoff [a.u.]                                                     15.6
 PW_GRID| spherical cutoff:                                                   NO
 PW_GRID|   Bounds   1            -24      23                Points:          48
 PW_GRID|   Bounds   2            -24      23                Points:          48
 PW_GRID|   Bounds   3            -48      47                Points:          96
 PW_GRID| Volume element (a.u.^3)  0.1173         Volume (a.u.^3)     25946.4383
 PW_GRID| Grid span                                                    FULLSPACE
 PW_GRID|   Distribution                         Average         Max         Min
 PW_GRID|   G-Vectors                             5529.6        5952        5040
 PW_GRID|   G-Rays                                 115.2         124         105
 PW_GRID|   Real Space Points                     5529.6        9216        4608

 PW_GRID| Information for grid number                                          4
 PW_GRID| Number of the reference grid                                         1
 PW_GRID| Grid distributed over                                    40 processors
 PW_GRID| Real space group dimensions                                    40    1
 PW_GRID| the grid is blocked:                                                NO
 PW_GRID| Cutoff [a.u.]                                                      3.9
 PW_GRID| spherical cutoff:                                                   NO
 PW_GRID|   Bounds   1            -12      11                Points:          24
 PW_GRID|   Bounds   2            -12      11                Points:          24
 PW_GRID|   Bounds   3            -24      23                Points:          48
 PW_GRID| Volume element (a.u.^3)  0.9385         Volume (a.u.^3)     25946.4383
 PW_GRID| Grid span                                                    FULLSPACE
 PW_GRID|   Distribution                         Average         Max         Min
 PW_GRID|   G-Vectors                              691.2         744         624
 PW_GRID|   G-Rays                                  28.8          31          26
 PW_GRID|   Real Space Points                      691.2        1152           0

 PW_GRID| Information for grid number                                          5
 PW_GRID| Number of the reference grid                                         1
 PW_GRID| Grid distributed over                                    40 processors
 PW_GRID| Real space group dimensions                                    40    1
 PW_GRID| the grid is blocked:                                                NO
 PW_GRID| Cutoff [a.u.]                                                      1.0
 PW_GRID| spherical cutoff:                                                   NO
 PW_GRID|   Bounds   1             -6       5                Points:          12
 PW_GRID|   Bounds   2             -6       5                Points:          12
 PW_GRID|   Bounds   3            -12      11                Points:          24
 PW_GRID| Volume element (a.u.^3)   7.508         Volume (a.u.^3)     25946.4383
 PW_GRID| Grid span                                                    FULLSPACE
 PW_GRID|   Distribution                         Average         Max         Min
 PW_GRID|   G-Vectors                               86.4         120          60
 PW_GRID|   G-Rays                                   7.2          10           5
 PW_GRID|   Real Space Points                       86.4         288           0

 POISSON| Solver                                                        PERIODIC
 POISSON| Periodicity                                                        XYZ

 RS_GRID| Information for grid number                                          1
 RS_GRID|   Bounds   1            -96      95                Points:         192
 RS_GRID|   Bounds   2            -96      95                Points:         192
 RS_GRID|   Bounds   3           -192     191                Points:         384
 RS_GRID| Real space distribution over                                  4 groups
 RS_GRID| Real space distribution along direction                              2
 RS_GRID| Border size                                                         28
 RS_GRID| Real space distribution over                                 10 groups
 RS_GRID| Real space distribution along direction                              3
 RS_GRID| Border size                                                         28
 RS_GRID|   Distribution                         Average         Max         Min
 RS_GRID|   Planes                                 104.0         104         104
 RS_GRID|   Distribution                         Average         Max         Min
 RS_GRID|   Planes                                  94.4          95          94

 RS_GRID| Information for grid number                                          2
 RS_GRID|   Bounds   1            -48      47                Points:          96
 RS_GRID|   Bounds   2            -48      47                Points:          96
 RS_GRID|   Bounds   3            -96      95                Points:         192
 RS_GRID| Real space distribution over                                  4 groups
 RS_GRID| Real space distribution along direction                              2
 RS_GRID| Border size                                                         33
 RS_GRID| Real space distribution over                                 10 groups
 RS_GRID| Real space distribution along direction                              3
 RS_GRID| Border size                                                         33
 RS_GRID|   Distribution                         Average         Max         Min
 RS_GRID|   Planes                                  90.0          90          90
 RS_GRID|   Distribution                         Average         Max         Min
 RS_GRID|   Planes                                  85.2          86          85

 RS_GRID| Information for grid number                                          3
 RS_GRID|   Bounds   1            -24      23                Points:          48
 RS_GRID|   Bounds   2            -24      23                Points:          48
 RS_GRID|   Bounds   3            -48      47                Points:          96
 RS_GRID| Real space fully replicated
 RS_GRID| Group size                                                           1

 RS_GRID| Information for grid number                                          4
 RS_GRID|   Bounds   1            -12      11                Points:          24
 RS_GRID|   Bounds   2            -12      11                Points:          24
 RS_GRID|   Bounds   3            -24      23                Points:          48
 RS_GRID| Real space fully replicated
 RS_GRID| Group size                                                           1

 RS_GRID| Information for grid number                                          5
 RS_GRID|   Bounds   1             -6       5                Points:          12
 RS_GRID|   Bounds   2             -6       5                Points:          12
 RS_GRID|   Bounds   3            -12      11                Points:          24
 RS_GRID| Real space fully replicated
 RS_GRID| Group size                                                           1

 BFGS| Use rational function optimization for step estimation:                NO
 BFGS| Use model Hessian for initial guess:                                  YES
 BFGS| Restart Hessian:                                                       NO
 BFGS| Trust radius:                                                       0.472

 *** WARNING in fm/cp_fm_elpa.F:521 :: Setting real_kernel for ELPA failed ***


 *******************************************************************************
 ***                     STARTING GEOMETRY OPTIMIZATION                      ***
 ***                                   BFGS                                  ***
 *******************************************************************************

 Spin 1

 Number of electrons:                                                        769
 Number of occupied orbitals:                                                769
 Number of molecular orbitals:                                               769

 Spin 2

 Number of electrons:                                                        768
 Number of occupied orbitals:                                                768
 Number of molecular orbitals:                                               768

 Number of orbital functions:                                               3328

 *** WARNING in fm/cp_fm_elpa.F:521 :: Setting real_kernel for ELPA failed ***

 Number of independent orbital functions:                                   3328

 Extrapolation method: initial_guess


 CDFT EXTERNAL SCF WAVEFUNCTION OPTIMIZATION

  ---------------------------------- CDFT --------------------------------------
  Optimizing a density constraint in an external SCF loop 
  
  Type of constraint:     Hirshfeld
  Number of constraints:          1
  Using fragment densities:       F
  
  Calculating atomic CDFT charges

  Minimizer               : Secant

  Reusing OT preconditioner:       F

  Hirshfeld constraint settings
  
  Shape function type:      Density

  ---------------------------------- CDFT --------------------------------------


 SCF WAVEFUNCTION OPTIMIZATION

  ----------------------------------- OT ---------------------------------------
  Minimizer      : CG                  : conjugate gradient
  Preconditioner : FULL_ALL            : diagonalization, state selective
  Precond_solver : DEFAULT
  Line search    : 2PNT                : 2 energies, one gradient
  stepsize       :    0.15000000                  energy_gap     :    0.00100000
  ortho_irac     : CHOL                           irac_degree    :             4
  max_irac       :            50                  eps_irac       :   0.10000E-09
  eps_irac_switch:   0.10000E-01                  eps_irac_quick_exit: 0.100E-04
  on_the_fly_loc : F
  ----------------------------------- OT ---------------------------------------

  Step     Update method      Time    Convergence         Total energy    Change
  ------------------------------------------------------------------------------

  ----------------------- CDFT group definitions -------------------------
    Atomic group    1 of     1
    Atom  Element  Coefficient
      18       Ti        1.000
  ------------------------------------------------------------------------

  ------------------- Hirshfeld constraint information -------------------
  Atomic group                :                                          1
  Type of constraint          :           Magnetization density constraint
  Target value of constraint  :                             1.000000000000
  Current value of constraint :                             0.999728223751
  Deviation from target       :                                 -2.718E-04
  Strength of constraint      :                             0.000000000000
  ------------------------------------------------------------------------

  ------------------------------------------ CDFT atomic charges -------------------------------------------
  #Atom  Element   Is_constraint   Core charge    Population (alpha, beta)    Net charge      Spin population
     18       Ti               T        12.000         6.202         5.203         0.595                1.000

  Total Charge and Spin Moment:                                                    0.595                1.000


 *** WARNING in fm/cp_fm_elpa.F:521 :: Setting real_kernel for ELPA failed ***


 *** WARNING in fm/cp_fm_elpa.F:521 :: Setting real_kernel for ELPA failed ***


 *** WARNING in fm/cp_fm_elpa.F:521 :: Setting real_kernel for ELPA failed ***


 *** WARNING in fm/cp_fm_elpa.F:521 :: Setting real_kernel for ELPA failed ***


 *** WARNING in fm/cp_fm_elpa.F:521 :: Setting real_kernel for ELPA failed ***


 *** WARNING in fm/cp_fm_elpa.F:521 :: Setting real_kernel for ELPA failed ***

     1 OT CG       0.15E+00    9.9     0.00003137     -5775.8637691135 -5.78E+03

  ------------------- Hirshfeld constraint information -------------------
  Atomic group                :                                          1
  Type of constraint          :           Magnetization density constraint
  Target value of constraint  :                             1.000000000000
  Current value of constraint :                             0.963820891814
  Deviation from target       :                                 -3.618E-02
  Strength of constraint      :                             0.000000000000
  ------------------------------------------------------------------------

  ------------------------------------------ CDFT atomic charges -------------------------------------------
  #Atom  Element   Is_constraint   Core charge    Population (alpha, beta)    Net charge      Spin population
     18       Ti               T        12.000         6.180         5.216         0.605                0.964

  Total Charge and Spin Moment:                                                    0.605                0.964

     2 OT LS       0.50E+00    4.0                    -5775.8634111191

  ------------------- Hirshfeld constraint information -------------------
  Atomic group                :                                          1
  Type of constraint          :           Magnetization density constraint
  Target value of constraint  :                             1.000000000000
  Current value of constraint :                             0.879285861490
  Deviation from target       :                                 -1.207E-01
  Strength of constraint      :                             0.000000000000
  ------------------------------------------------------------------------

  ------------------------------------------ CDFT atomic charges -------------------------------------------
  #Atom  Element   Is_constraint   Core charge    Population (alpha, beta)    Net charge      Spin population
     18       Ti               T        12.000         6.126         5.247         0.627                0.879

  Total Charge and Spin Moment:                                                    0.627                0.879

     3 OT CG       0.50E+00    7.3     0.00002723     -5775.8630429569 -1.27E-03

  ------------------- Hirshfeld constraint information -------------------
  Atomic group                :                                          1
  Type of constraint          :           Magnetization density constraint
  Target value of constraint  :                             1.000000000000
  Current value of constraint :                             0.781843079418
  Deviation from target       :                                 -2.182E-01
  Strength of constraint      :                             0.000000000000
  ------------------------------------------------------------------------

  ------------------------------------------ CDFT atomic charges -------------------------------------------
  #Atom  Element   Is_constraint   Core charge    Population (alpha, beta)    Net charge      Spin population
     18       Ti               T        12.000         6.117         5.335         0.548                0.782

  Total Charge and Spin Moment:                                                    0.548                0.782

     4 OT LS       0.14E+00    3.8                    -5775.8635598170

  ------------------- Hirshfeld constraint information -------------------
  Atomic group                :                                          1
  Type of constraint          :           Magnetization density constraint
  Target value of constraint  :                             1.000000000000
  Current value of constraint :                             0.853034918251
  Deviation from target       :                                 -1.470E-01
[...]
 *  O/|                                                                        *
 * /| |                                                                        *
 * / \                                           mpiwrap/message_passing.F:843 *
 *******************************************************************************


 *******************************************************************************
 *   ___                                                                       *
 *  /   \                                                                      *
 * [ABORT]                                                                     *
 *  \___/        mp_world_finalize: assert failed:  leaking communicators      *
 *    |                                                                        *
 *  O/|                                                                        *
 * /| |                                                                        *
 * / \                                           mpiwrap/message_passing.F:843 *
 *******************************************************************************


 *******************************************************************************
 *   ___                                                                       *
 *  /   \                                                                      *
 * [ABORT]                                                                     *
 *  \___/        mp_world_finalize: assert failed:  leaking communicators      *
 *    |                                                                        *
 *  O/|                                                                        *
 * /| |                                                                        *
 * / \                                           mpiwrap/message_passing.F:843 *
 *******************************************************************************


 *******************************************************************************
 *   ___                                                                       *
 *  /   \                                                                      *
 * [ABORT]                                                                     *
 *  \___/        mp_world_finalize: assert failed:  leaking communicators      *
 *    |                                                                        *
 *  O/|                                                                        *
 * /| |                                                                        *
 * / \                                           mpiwrap/message_passing.F:843 *
 *******************************************************************************


 *******************************************************************************
 *   ___                                                                       *
 *  /   \                                                                      *
 * [ABORT]                                                                     *
 *  \___/        mp_world_finalize: assert failed:  leaking communicators      *
 *    |                                                                        *
 *  O/|                                                                        *
 * /| |                                                                        *
 * / \                                           mpiwrap/message_passing.F:843 *
 *******************************************************************************

 * / \                                           mpiwrap/message_passing.F:843 *
 *******************************************************************************


 *******************************************************************************
 *   ___                                                                       *
 *  /   \                                                                      *
 * [ABORT]                                                                     *
 *  \___/        mp_world_finalize: assert failed:  leaking communicators      *
 *    |                                                                        *
 *  O/|                                                                        *
 * /| |                                                                        *
 * / \                                           mpiwrap/message_passing.F:843 *
 *******************************************************************************


 *******************************************************************************
 *   ___                                                                       *
 *  /   \                                                                      *
 * [ABORT]                                                                     *
 *  \___/        mp_world_finalize: assert failed:  leaking communicators      *
 *    |                                                                        *
 *  O/|                                                                        *
 * /| |                                                                        *
 * / \                                           mpiwrap/message_passing.F:843 *
 *******************************************************************************


 *******************************************************************************
 *   ___                                                                       *
 *  /   \                                                                      *
 * [ABORT]                                                                     *
 *  \___/        mp_world_finalize: assert failed:  leaking communicators      *
 *    |                                                                        *
 *  O/|                                                                        *
 * /| |                                                                        *
 * / \                                           mpiwrap/message_passing.F:843 *
 *******************************************************************************


 *******************************************************************************
 *   ___                                                                       *
 *  /   \                                                                      *
 * [ABORT]                                                                     *
 *  \___/        mp_world_finalize: assert failed:  leaking communicators      *
 *    |                                                                        *
 *  O/|                                                                        *
 * /| |                                                                        *
 * / \                                           mpiwrap/message_passing.F:843 *
 *******************************************************************************


 *******************************************************************************
 *   ___                                                                       *
 *  /   \                                                                      *
 * [ABORT]                                                                     *
 *  \___/        mp_world_finalize: assert failed:  leaking communicators      *
 *    |                                                                        *
 *  O/|                                                                        *
 * /| |                                                                        *
 * / \                                           mpiwrap/message_passing.F:843 *
 *******************************************************************************


 *******************************************************************************
 *   ___                                                                       *
 *  /   \                                                                      *
 * [ABORT]                                                                     *
 *  \___/        mp_world_finalize: assert failed:  leaking communicators      *
 *    |                                                                        *
 *  O/|                                                                        *
 * /| |                                                                        *
 * / \                                           mpiwrap/message_passing.F:843 *
 *******************************************************************************


 *******************************************************************************
 *   ___                                                                       *
 *  /   \                                                                      *
 * [ABORT]                                                                     *
 *  \___/        mp_world_finalize: assert failed:  leaking communicators      *
 *    |                                                                        *
 *  O/|                                                                        *
 * /| |                                                                        *
 * / \                                           mpiwrap/message_passing.F:843 *
 *******************************************************************************


 *******************************************************************************
 *   ___                                                                       *
 *  /   \                                                                      *
 * [ABORT]                                                                     *
 *  \___/        mp_world_finalize: assert failed:  leaking communicators      *
 *    |                                                                        *
 *  O/|                                                                        *
 * /| |                                                                        *
 * / \                                           mpiwrap/message_passing.F:843 *
 *******************************************************************************


 *******************************************************************************
 *   ___                                                                       *
 *  /   \                                                                      *
 * [ABORT]                                                                     *
 *  \___/        mp_world_finalize: assert failed:  leaking communicators      *
 *    |                                                                        *
 *  O/|                                                                        *
 * /| |                                                                        *
 * / \                                           mpiwrap/message_passing.F:843 *
 *******************************************************************************


 *******************************************************************************
 *   ___                                                                       *
 *  /   \                                                                      *
 * [ABORT]                                                                     *
 *  \___/        mp_world_finalize: assert failed:  leaking communicators      *
 *    |                                                                        *
 *  O/|                                                                        *
 * /| |                                                                        *
 * / \                                           mpiwrap/message_passing.F:843 *
 *******************************************************************************


 *******************************************************************************
 *   ___                                                                       *
 *  /   \                                                                      *
 * [ABORT]                                                                     *
 *  \___/        mp_world_finalize: assert failed:  leaking communicators      *
 *    |                                                                        *
 *  O/|                                                                        *
 * /| |                                                                        *
 * / \                                           mpiwrap/message_passing.F:843 *
 *******************************************************************************


 *******************************************************************************
 *   ___                                                                       *
 *  /   \                                                                      *
 * [ABORT]                                                                     *
 *  \___/        mp_world_finalize: assert failed:  leaking communicators      *
 *    |                                                                        *
 *  O/|                                                                        *
 * /| |                                                                        *
 * / \                                           mpiwrap/message_passing.F:843 *
 *******************************************************************************


 *******************************************************************************
 *   ___                                                                       *
 *  /   \                                                                      *
 * [ABORT]                                                                     *
 *  \___/        mp_world_finalize: assert failed:  leaking communicators      *
 *    |                                                                        *
 *  O/|                                                                        *
 * /| |                                                                        *
 * / \                                           mpiwrap/message_passing.F:843 *
 *******************************************************************************


 *******************************************************************************
 *   ___                                                                       *
 *  /   \                                                                      *
 * [ABORT]                                                                     *
 *  \___/        mp_world_finalize: assert failed:  leaking communicators      *
 *    |                                                                        *
 *  O/|                                                                        *
 * /| |                                                                        *
 * / \                                           mpiwrap/message_passing.F:843 *
 *******************************************************************************


 *******************************************************************************
 *   ___                                                                       *
 *  /   \                                                                      *
 * [ABORT]                                                                     *
 *  \___/        mp_world_finalize: assert failed:  leaking communicators      *
 *    |                                                                        *
 *  O/|                                                                        *
 * /| |                                                                        *
 * / \                                           mpiwrap/message_passing.F:843 *
 *******************************************************************************


 *******************************************************************************
 *   ___                                                                       *
 *  /   \                                                                      *
 * [ABORT]                                                                     *
 *  \___/        mp_world_finalize: assert failed:  leaking communicators      *
 *    |                                                                        *
 *  O/|                                                                        *
 * /| |                                                                        *
 * / \                                           mpiwrap/message_passing.F:843 *
 *******************************************************************************


 *******************************************************************************
 *   ___                                                                       *
 *  /   \                                                                      *
 * [ABORT]                                                                     *
 *  \___/        mp_world_finalize: assert failed:  leaking communicators      *
 *    |                                                                        *
 *  O/|                                                                        *
 * /| |                                                                        *
 * / \                                           mpiwrap/message_passing.F:843 *
 *******************************************************************************


 *******************************************************************************
 *   ___                                                                       *
 *  /   \                                                                      *
 * [ABORT]                                                                     *
 *  \___/        mp_world_finalize: assert failed:  leaking communicators      *
 *    |                                                                        *
 *  O/|                                                                        *
 * /| |                                                                        *
 * / \                                           mpiwrap/message_passing.F:843 *
 *******************************************************************************


 *******************************************************************************
 *   ___                                                                       *
 *  /   \                                                                      *
 * [ABORT]                                                                     *
 *  \___/        mp_world_finalize: assert failed:  leaking communicators      *
 *    |                                                                        *
 *  O/|                                                                        *
 * /| |                                                                        *
 * / \                                           mpiwrap/message_passing.F:843 *
 *******************************************************************************


 *******************************************************************************
 *   ___                                                                       *
 *  /   \                                                                      *
 * [ABORT]                                                                     *
 *  \___/        mp_world_finalize: assert failed:  leaking communicators      *
 *    |                                                                        *
 *  O/|                                                                        *
 * /| |                                                                        *
 * / \                                           mpiwrap/message_passing.F:843 *
 *******************************************************************************

