 DBCSR| CPU Multiplication driver                                           XSMM
 DBCSR| Multrec recursion limit                                              512
 DBCSR| Multiplication stack size                                           1000
 DBCSR| Maximum elements for images                                    UNLIMITED
 DBCSR| Multiplicative factor virtual images                                   1
 DBCSR| Use multiplication densification                                       T
 DBCSR| Multiplication size stacks                                             3
 DBCSR| Use memory pool for CPU allocation                                     F
 DBCSR| Number of 3D layers                                               SINGLE
 DBCSR| Use MPI memory allocation                                              F
 DBCSR| Use RMA algorithm                                                      F
 DBCSR| Use Communication thread                                               T
 DBCSR| Communication thread load                                             87
 DBCSR| MPI: My node id                                                        0
 DBCSR| MPI: Number of nodes                                                  40
 DBCSR| OMP: Current number of threads                                         1
 DBCSR| OMP: Max number of threads                                             1
 DBCSR| Split modifier for TAS multiplication algorithm                  1.0E+00


  **** **** ******  **  PROGRAM STARTED AT               2023-05-25 10:34:05.223
 ***** ** ***  *** **   PROGRAM STARTED ON                                node10
 **    ****   ******    PROGRAM STARTED BY                                  wyin
 ***** **    ** ** **   PROGRAM PROCESS ID                                  1885
  **** **  *******  **  PROGRAM STARTED IN /home/wyin/bozai/job/1-TiO2/1-Bulk/3-
                                           Marcus/2-lamuda/1-46-28

 CP2K| version string:                                       CP2K version 2022.1
 CP2K| source code revision number:                                  git:2caeb6f
 CP2K| cp2kflags: omp libint fftw3 libxc elpa parallel mpi3 scalapack xsmm plume
 CP2K|            d2 spglib mkl libvori libbqb
 CP2K| is freely available from                            https://www.cp2k.org/
 CP2K| Program compiled at                          Mon Mar 13 16:18:57 CET 2023
 CP2K| Program compiled on                                               login02
 CP2K| Program compiled for                                                local
 CP2K| Data directory path                   /home/wyin/package/cp2k-2022.1/data
 CP2K| Input file name                                                 input.inp
 
 GLOBAL| Force Environment number                                              1
 GLOBAL| Basis set file name            /home/wyin/bozai/Bootstrap/BASIS_SET/BAS
 GLOBAL| Potential file name            /home/wyin/bozai/Bootstrap/BASIS_SET/GTH
 GLOBAL| MM Potential file name                                     MM_POTENTIAL
 GLOBAL| Coordinate file name                                           Ti28.xyz
 GLOBAL| Method name                                                        CP2K
 GLOBAL| Project name                                                    PROJECT
 GLOBAL| Run type                                                        GEO_OPT
 GLOBAL| FFT library                                                       FFTW3
 GLOBAL| Diagonalization library                                            ELPA
 GLOBAL| Minimum number of eigenvectors for ELPA usage                        16
 GLOBAL| Orthonormality check for eigenvectors                          DISABLED
 GLOBAL| Matrix multiplication library                                 ScaLAPACK
 GLOBAL| All-to-all communication in single precision                          F
 GLOBAL| FFTs using library dependent lengths                                  F
 GLOBAL| Grid backend                                                       AUTO
 GLOBAL| Global print level                                               MEDIUM
 GLOBAL| MPI I/O enabled                                                       T
 GLOBAL| Total number of message passing processes                            40
 GLOBAL| Number of threads for this process                                    1
 GLOBAL| This output is from process                                           0
 GLOBAL| Stack size for threads created by OpenMP (OMP_STACKSIZE)        default
 GLOBAL| CPU model name                Intel(R) Xeon(R) CPU E5-2640 v4 @ 2.40GHz
 GLOBAL| CPUID                                                              1002
 GLOBAL| Compiled for CPUID                                                 1001

 *** HINT in environment.F:869 :: The compiler target flags (x86_avx) used ***
 *** to build this binary cannot exploit all extensions of this CPU model  ***
 *** (x86_avx2). Consider compiler target flags as part of FCFLAGS and     ***
 *** CFLAGS (ARCH file).                                                   ***


 MEMORY| system memory details [Kb]
 MEMORY|                        rank 0           min           max       average
 MEMORY| MemTotal            131745360     131745360     131745444     131745402
 MEMORY| MemFree             126907088     126907088     126914448     126910768
 MEMORY| Buffers                 17952         16764         17952         17358
 MEMORY| Cached                 352548        344716        352548        348632
 MEMORY| Slab                   135704        132024        135704        133864
 MEMORY| SReclaimable            43580         42232         43580         42906
 MEMORY| MemLikelyFree       127321168     127318160     127321168     127319664


 *** Fundamental physical constants (SI units) ***

 *** Literature: B. J. Mohr and B. N. Taylor,
 ***             CODATA recommended values of the fundamental physical
 ***             constants: 2006, Web Version 5.1
 ***             http://physics.nist.gov/constants

 Speed of light in vacuum [m/s]                             2.99792458000000E+08
 Magnetic constant or permeability of vacuum [N/A**2]       1.25663706143592E-06
 Electric constant or permittivity of vacuum [F/m]          8.85418781762039E-12
 Planck constant (h) [J*s]                                  6.62606896000000E-34
 Planck constant (h-bar) [J*s]                              1.05457162825177E-34
 Elementary charge [C]                                      1.60217648700000E-19
 Electron mass [kg]                                         9.10938215000000E-31
 Electron g factor [ ]                                     -2.00231930436220E+00
 Proton mass [kg]                                           1.67262163700000E-27
 Fine-structure constant                                    7.29735253760000E-03
 Rydberg constant [1/m]                                     1.09737315685270E+07
 Avogadro constant [1/mol]                                  6.02214179000000E+23
 Boltzmann constant [J/K]                                   1.38065040000000E-23
 Atomic mass unit [kg]                                      1.66053878200000E-27
 Bohr radius [m]                                            5.29177208590000E-11

 *** Conversion factors ***

 [u] -> [a.u.]                                              1.82288848426455E+03
 [Angstrom] -> [Bohr] = [a.u.]                              1.88972613288564E+00
 [a.u.] = [Bohr] -> [Angstrom]                              5.29177208590000E-01
 [a.u.] -> [s]                                              2.41888432650478E-17
 [a.u.] -> [fs]                                             2.41888432650478E-02
 [a.u.] -> [J]                                              4.35974393937059E-18
 [a.u.] -> [N]                                              8.23872205491840E-08
 [a.u.] -> [K]                                              3.15774647902944E+05
 [a.u.] -> [kJ/mol]                                         2.62549961709828E+03
 [a.u.] -> [kcal/mol]                                       6.27509468713739E+02
 [a.u.] -> [Pa]                                             2.94210107994716E+13
 [a.u.] -> [bar]                                            2.94210107994716E+08
 [a.u.] -> [atm]                                            2.90362800883016E+08
 [a.u.] -> [eV]                                             2.72113838565563E+01
 [a.u.] -> [Hz]                                             6.57968392072181E+15
 [a.u.] -> [1/cm] (wave numbers)                            2.19474631370540E+05
 [a.u./Bohr**2] -> [1/cm]                                   5.14048714338585E+03
 

 CELL_TOP| Volume [angstrom^3]:                                      2911.992402
 CELL_TOP| Vector a [angstrom    13.911     0.000     0.000   |a| =    13.910500
 CELL_TOP| Vector b [angstrom     0.000    13.911     0.000   |b| =    13.910500
 CELL_TOP| Vector c [angstrom     0.000     0.000    15.049   |c| =    15.048900
 CELL_TOP| Angle (b,c), alpha [degree]:                                90.000000
 CELL_TOP| Angle (a,c), beta  [degree]:                                90.000000
 CELL_TOP| Angle (a,b), gamma [degree]:                                90.000000
 CELL_TOP| Numerically orthorhombic:                                         YES
 
 GENERATE|  Preliminary Number of Bonds generated:                             0
 GENERATE|  Achieved consistency in connectivity generation.

 CELL| Volume [angstrom^3]:                                          2911.992402
 CELL| Vector a [angstrom]:      13.911     0.000     0.000   |a| =    13.910500
 CELL| Vector b [angstrom]:       0.000    13.911     0.000   |b| =    13.910500
 CELL| Vector c [angstrom]:       0.000     0.000    15.049   |c| =    15.048900
 CELL| Angle (b,c), alpha [degree]:                                    90.000000
 CELL| Angle (a,c), beta  [degree]:                                    90.000000
 CELL| Angle (a,b), gamma [degree]:                                    90.000000
 CELL| Numerically orthorhombic:                                             YES

 CELL_REF| Volume [angstrom^3]:                                      2911.992402
 CELL_REF| Vector a [angstrom    13.911     0.000     0.000   |a| =    13.910500
 CELL_REF| Vector b [angstrom     0.000    13.911     0.000   |b| =    13.910500
 CELL_REF| Vector c [angstrom     0.000     0.000    15.049   |c| =    15.048900
 CELL_REF| Angle (b,c), alpha [degree]:                                90.000000
 CELL_REF| Angle (a,c), beta  [degree]:                                90.000000
 CELL_REF| Angle (a,b), gamma [degree]:                                90.000000
 CELL_REF| Numerically orthorhombic:                                         YES

 *******************************************************************************
 *******************************************************************************
 **                                                                           **
 **     #####                         ##              ##                      **
 **    ##   ##            ##          ##              ##                      **
 **   ##     ##                       ##            ######                    **
 **   ##     ##  ##   ##  ##   #####  ##  ##   ####   ##    #####    #####    **
 **   ##     ##  ##   ##  ##  ##      ## ##   ##      ##   ##   ##  ##   ##   **
 **   ##  ## ##  ##   ##  ##  ##      ####     ###    ##   ######   ######    **
 **    ##  ###   ##   ##  ##  ##      ## ##      ##   ##   ##       ##        **
 **     #######   #####   ##   #####  ##  ##  ####    ##    #####   ##        **
 **           ##                                                    ##        **
 **                                                                           **
 **                                                ... make the atoms dance   **
 **                                                                           **
 **            Copyright (C) by CP2K developers group (2000-2022)             **
 **                      J. Chem. Phys. 152, 194103 (2020)                    **
 **                                                                           **
 *******************************************************************************

 DFT| Spin unrestricted (spin-polarized) Kohn-Sham calculation               UKS
 DFT| Multiplicity                                                             2
 DFT| Number of spin states                                                    2
 DFT| Charge                                                                  -1
 DFT| Self-interaction correction (SIC)                                       NO
 DFT| Cutoffs: density                                              1.000000E-10
 DFT|          gradient                                             1.000000E-10
 DFT|          tau                                                  1.000000E-10
 DFT|          cutoff_smoothing_range                               0.000000E+00
 DFT| XC density smoothing                                                  NN10
 DFT| XC derivatives                                              SPLINE2_SMOOTH

 DFT+U| Method                                                            LOWDIN
 DFT+U| Check atomic kind information for details

 FUNCTIONAL| PBE:
 FUNCTIONAL| J.P.Perdew, K.Burke, M.Ernzerhof, Phys. Rev. Letter, vol. 77, n 18,
 FUNCTIONAL|  pp. 3865-3868, (1996){spin polarized}                             

 vdW POTENTIAL|                                                   Pair Potential
 vdW POTENTIAL|          DFT-D3 (Version 3.1)
 vdW POTENTIAL|          Potential Form: S. Grimme et al, JCP 132: 154104 (2010)
 vdW POTENTIAL|          Zero Damping
 vdW POTENTIAL|          Cutoff Radius [Bohr]:                             20.00
 vdW POTENTIAL|          s6 Scaling Factor:                               1.0000
 vdW POTENTIAL|          sr6 Scaling Factor:                              1.2170
 vdW POTENTIAL|          s8 Scaling Factor:                               0.7220
 vdW POTENTIAL|          Cutoff for CN calculation:                   0.1000E-05

 QS| Method:                                                                 GPW
 QS| Density plane wave grid type                        NON-SPHERICAL FULLSPACE
 QS| Number of grid levels:                                                    5
 QS| Density cutoff [a.u.]:                                                400.0
 QS| Using commensurate multigrids
 QS| Multi grid cutoff [a.u.]: 1) grid level                               400.0
 QS|                           2) grid level                               100.0
 QS|                           3) grid level                                25.0
 QS|                           4) grid level                                 6.2
 QS|                           5) grid level                                 1.6
 QS| Grid level progression factor:                                          4.0
 QS| Relative density cutoff [a.u.]:                                        20.0
 QS| Interaction thresholds: eps_pgf_orb:                                1.0E-06
 QS|                         eps_filter_matrix:                          0.0E+00
 QS|                         eps_core_charge:                            1.0E-14
 QS|                         eps_rho_gspace:                             1.0E-12
 QS|                         eps_rho_rspace:                             1.0E-12
 QS|                         eps_gvg_rspace:                             1.0E-06
 QS|                         eps_ppl:                                    1.0E-02
 QS|                         eps_ppnl:                                   1.0E-08


 ATOMIC KIND INFORMATION

  1. Atomic kind: Ti                                    Number of atoms:      90

     Orbital Basis Set                                        DZVP-MOLOPT-SR-GTH

       Number of orbital shell sets:                                           1
       Number of orbital shells:                                               8
       Number of primitive Cartesian functions:                                6
       Number of Cartesian basis functions:                                   31
       Number of spherical basis functions:                                   26
       Norm type:                                                              2

       Normalised Cartesian orbitals:

                        Set   Shell   Orbital            Exponent    Coefficient

                          1       1    2s                7.884570       0.015554
                                                         3.894698       0.963603
                                                         1.513589      -0.631435
                                                         0.596768      -0.343022
                                                         0.222222      -0.006534
                                                         0.077078       0.007652

                          1       2    3s                7.884570      -0.009340
                                                         3.894698       0.212624
                                                         1.513589      -0.258368
                                                         0.596768      -0.226206
                                                         0.222222       0.039438
                                                         0.077078       0.107179

                          1       3    4s                7.884570       0.276563
                                                         3.894698       0.105452
                                                         1.513589       0.085149
                                                         0.596768       0.882541
                                                         0.222222      -0.696223
                                                         0.077078       0.156638

                          1       4    3px               7.884570      -2.034794
                                                         3.894698       0.782008
                                                         1.513589       1.253903
                                                         0.596768       0.347823
                                                         0.222222       0.016778
                                                         0.077078      -0.000433
                          1       4    3py               7.884570      -2.034794
                                                         3.894698       0.782008
                                                         1.513589       1.253903
                                                         0.596768       0.347823
                                                         0.222222       0.016778
                                                         0.077078      -0.000433
                          1       4    3pz               7.884570      -2.034794
                                                         3.894698       0.782008
                                                         1.513589       1.253903
                                                         0.596768       0.347823
                                                         0.222222       0.016778
                                                         0.077078      -0.000433

                          1       5    4px               7.884570       0.376572
                                                         3.894698      -0.182875
                                                         1.513589      -0.474776
                                                         0.596768      -0.081757
                                                         0.222222       0.064432
                                                         0.077078       0.047279
                          1       5    4py               7.884570       0.376572
                                                         3.894698      -0.182875
                                                         1.513589      -0.474776
                                                         0.596768      -0.081757
                                                         0.222222       0.064432
                                                         0.077078       0.047279
                          1       5    4pz               7.884570       0.376572
                                                         3.894698      -0.182875
                                                         1.513589      -0.474776
                                                         0.596768      -0.081757
                                                         0.222222       0.064432
                                                         0.077078       0.047279

                          1       6    4dx2              7.884570       3.047350
                                                         3.894698       3.289529
                                                         1.513589       1.060616
                                                         0.596768       0.249930
                                                         0.222222       0.038806
                                                         0.077078       0.002319
                          1       6    4dxy              7.884570       5.278165
                                                         3.894698       5.697631
                                                         1.513589       1.837041
                                                         0.596768       0.432892
                                                         0.222222       0.067214
                                                         0.077078       0.004017
                          1       6    4dxz              7.884570       5.278165
                                                         3.894698       5.697631
                                                         1.513589       1.837041
                                                         0.596768       0.432892
                                                         0.222222       0.067214
                                                         0.077078       0.004017
                          1       6    4dy2              7.884570       3.047350
                                                         3.894698       3.289529
                                                         1.513589       1.060616
                                                         0.596768       0.249930
                                                         0.222222       0.038806
                                                         0.077078       0.002319
                          1       6    4dyz              7.884570       5.278165
                                                         3.894698       5.697631
                                                         1.513589       1.837041
                                                         0.596768       0.432892
                                                         0.222222       0.067214
                                                         0.077078       0.004017
                          1       6    4dz2              7.884570       3.047350
                                                         3.894698       3.289529
                                                         1.513589       1.060616
                                                         0.596768       0.249930
                                                         0.222222       0.038806
                                                         0.077078       0.002319

                          1       7    5dx2              7.884570      -2.119015
                                                         3.894698      -1.237751
                                                         1.513589      -0.746777
                                                         0.596768      -0.071514
                                                         0.222222       0.004086
                                                         0.077078       0.017595
                          1       7    5dxy              7.884570      -3.670241
                                                         3.894698      -2.143848
                                                         1.513589      -1.293455
                                                         0.596768      -0.123865
                                                         0.222222       0.007077
                                                         0.077078       0.030475
                          1       7    5dxz              7.884570      -3.670241
                                                         3.894698      -2.143848
                                                         1.513589      -1.293455
                                                         0.596768      -0.123865
                                                         0.222222       0.007077
                                                         0.077078       0.030475
                          1       7    5dy2              7.884570      -2.119015
                                                         3.894698      -1.237751
                                                         1.513589      -0.746777
                                                         0.596768      -0.071514
                                                         0.222222       0.004086
                                                         0.077078       0.017595
                          1       7    5dyz              7.884570      -3.670241
                                                         3.894698      -2.143848
                                                         1.513589      -1.293455
                                                         0.596768      -0.123865
                                                         0.222222       0.007077
                                                         0.077078       0.030475
                          1       7    5dz2              7.884570      -2.119015
                                                         3.894698      -1.237751
                                                         1.513589      -0.746777
                                                         0.596768      -0.071514
                                                         0.222222       0.004086
                                                         0.077078       0.017595

                          1       8    5fx3              7.884570      -0.342058
                                                         3.894698       0.375798
                                                         1.513589      -0.706469
                                                         0.596768      -0.229994
                                                         0.222222      -0.012723
                                                         0.077078       0.003932
                          1       8    5fx2y             7.884570      -0.764866
                                                         3.894698       0.840310
                                                         1.513589      -1.579712
                                                         0.596768      -0.514282
                                                         0.222222      -0.028450
                                                         0.077078       0.008792
                          1       8    5fx2z             7.884570      -0.764866
                                                         3.894698       0.840310
                                                         1.513589      -1.579712
                                                         0.596768      -0.514282
                                                         0.222222      -0.028450
                                                         0.077078       0.008792
                          1       8    5fxy2             7.884570      -0.764866
                                                         3.894698       0.840310
                                                         1.513589      -1.579712
                                                         0.596768      -0.514282
                                                         0.222222      -0.028450
                                                         0.077078       0.008792
                          1       8    5fxyz             7.884570      -1.324787
                                                         3.894698       1.455460
                                                         1.513589      -2.736142
                                                         0.596768      -0.890763
                                                         0.222222      -0.049276
                                                         0.077078       0.015229
                          1       8    5fxz2             7.884570      -0.764866
                                                         3.894698       0.840310
                                                         1.513589      -1.579712
                                                         0.596768      -0.514282
                                                         0.222222      -0.028450
                                                         0.077078       0.008792
                          1       8    5fy3              7.884570      -0.342058
                                                         3.894698       0.375798
                                                         1.513589      -0.706469
                                                         0.596768      -0.229994
                                                         0.222222      -0.012723
                                                         0.077078       0.003932
                          1       8    5fy2z             7.884570      -0.764866
                                                         3.894698       0.840310
                                                         1.513589      -1.579712
                                                         0.596768      -0.514282
                                                         0.222222      -0.028450
                                                         0.077078       0.008792
                          1       8    5fyz2             7.884570      -0.764866
                                                         3.894698       0.840310
                                                         1.513589      -1.579712
                                                         0.596768      -0.514282
                                                         0.222222      -0.028450
                                                         0.077078       0.008792
                          1       8    5fz3              7.884570      -0.342058
                                                         3.894698       0.375798
                                                         1.513589      -0.706469
                                                         0.596768      -0.229994
                                                         0.222222      -0.012723
                                                         0.077078       0.003932

       Atomic covalent radius [Angstrom]:                                  1.320

       Atomic van der Waals radius [Angstrom]:                             1.760

     GTH Potential information for                                   GTH-PBE-q12

       Description:                       Goedecker-Teter-Hutter pseudopotential
                                           Goedecker et al., PRB 54, 1703 (1996)
                                          Hartwigsen et al., PRB 58, 3641 (1998)
                                                      Krack, TCA 114, 145 (2005)

       Gaussian exponent of the core charge distribution:               3.462604
       Electronic configuration (s p d ...):                           4   6   2

       Parameters of the local part of the GTH pseudopotential:

                          rloc        C1          C2          C3          C4
                        0.380000    8.711442   -0.700287

       Parameters of the non-local part of the GTH pseudopotential:

                   l      r(l)      h(i,j,l)

                   0    0.337771    2.575264    3.692971
                                    3.692971   -4.767605
                   1    0.242531   -4.630541    8.870875
                                    8.870875  -10.496161
                   2    0.243317   -9.406653

     A DFT+U correction is applied to atoms of this atomic kind:
       Angular quantum momentum number L:                                      2
       U(eff) = (U - J) value in [eV]:                                     4.200

  2. Atomic kind: O                                     Number of atoms:     180

     Orbital Basis Set                                        DZVP-MOLOPT-SR-GTH

       Number of orbital shell sets:                                           1
       Number of orbital shells:                                               5
       Number of primitive Cartesian functions:                                5
       Number of Cartesian basis functions:                                   14
       Number of spherical basis functions:                                   13
       Norm type:                                                              2

       Normalised Cartesian orbitals:

                        Set   Shell   Orbital            Exponent    Coefficient

                          1       1    2s               10.389228       0.396646
                                                         3.849621       0.208811
                                                         1.388401      -0.301641
                                                         0.496955      -0.274061
                                                         0.162492      -0.033677

                          1       2    3s               10.389228       0.303673
                                                         3.849621       0.240943
                                                         1.388401      -0.313066
                                                         0.496955      -0.043055
                                                         0.162492       0.213991

                          1       3    3px              10.389228      -1.530415
                                                         3.849621      -1.371928
                                                         1.388401      -0.761951
                                                         0.496955      -0.253695
                                                         0.162492      -0.035541
                          1       3    3py              10.389228      -1.530415
                                                         3.849621      -1.371928
                                                         1.388401      -0.761951
                                                         0.496955      -0.253695
                                                         0.162492      -0.035541
                          1       3    3pz              10.389228      -1.530415
                                                         3.849621      -1.371928
                                                         1.388401      -0.761951
                                                         0.496955      -0.253695
                                                         0.162492      -0.035541

                          1       4    4px              10.389228      -0.565392
                                                         3.849621      -0.038231
                                                         1.388401      -0.382373
                                                         0.496955       0.179070
                                                         0.162492       0.122714
                          1       4    4py              10.389228      -0.565392
                                                         3.849621      -0.038231
                                                         1.388401      -0.382373
                                                         0.496955       0.179070
                                                         0.162492       0.122714
                          1       4    4pz              10.389228      -0.565392
                                                         3.849621      -0.038231
                                                         1.388401      -0.382373
                                                         0.496955       0.179070
                                                         0.162492       0.122714

                          1       5    4dx2             10.389228       1.867377
                                                         3.849621       0.670994
                                                         1.388401       1.353441
                                                         0.496955       0.273538
                                                         0.162492       0.006620
                          1       5    4dxy             10.389228       3.234392
                                                         3.849621       1.162195
                                                         1.388401       2.344229
                                                         0.496955       0.473781
                                                         0.162492       0.011466
                          1       5    4dxz             10.389228       3.234392
                                                         3.849621       1.162195
                                                         1.388401       2.344229
                                                         0.496955       0.473781
                                                         0.162492       0.011466
                          1       5    4dy2             10.389228       1.867377
                                                         3.849621       0.670994
                                                         1.388401       1.353441
                                                         0.496955       0.273538
                                                         0.162492       0.006620
                          1       5    4dyz             10.389228       3.234392
                                                         3.849621       1.162195
                                                         1.388401       2.344229
                                                         0.496955       0.473781
                                                         0.162492       0.011466
                          1       5    4dz2             10.389228       1.867377
                                                         3.849621       0.670994
                                                         1.388401       1.353441
                                                         0.496955       0.273538
                                                         0.162492       0.006620

       Atomic covalent radius [Angstrom]:                                  0.730

       Atomic van der Waals radius [Angstrom]:                             1.520

     GTH Potential information for                                    GTH-PBE-q6

       Description:                       Goedecker-Teter-Hutter pseudopotential
                                           Goedecker et al., PRB 54, 1703 (1996)
                                          Hartwigsen et al., PRB 58, 3641 (1998)
                                                      Krack, TCA 114, 145 (2005)

       Gaussian exponent of the core charge distribution:               8.360253
       Electronic configuration (s p d ...):                               2   4

       Parameters of the local part of the GTH pseudopotential:

                          rloc        C1          C2          C3          C4
                        0.244554  -16.667215    2.487311

       Parameters of the non-local part of the GTH pseudopotential:

                   l      r(l)      h(i,j,l)

                   0    0.220956   18.337458
                   1    0.211332


 MOLECULE KIND INFORMATION


 All atoms are their own molecule, skipping detailed information


 TOTAL NUMBERS AND MAXIMUM NUMBERS

  Total number of            - Atomic kinds:                                   2
                             - Atoms:                                        270
                             - Shell sets:                                   270
                             - Shells:                                      1620
                             - Primitive Cartesian functions:               1440
                             - Cartesian basis functions:                   5310
                             - Spherical basis functions:                   4680

  Maximum angular momentum of- Orbital basis functions:                        3
                             - Local part of the GTH pseudopotential:          2
                             - Non-local part of the GTH pseudopotential:      3


 MODULE QUICKSTEP:  ATOMIC COORDINATES IN angstrom

 Atom  Kind  Element       X           Y           Z          Z(eff)       Mass
    1   1 Ti  22      -0.011301   -0.030363   -0.000819      12.0000     47.8670
    2   1 Ti  22       2.307902    2.289750    1.510831      12.0000     47.8670
    3   1 Ti  22       4.628528   -0.032775    0.000734      12.0000     47.8670
    4   1 Ti  22       6.935831    2.293069    1.504263      12.0000     47.8670
    5   1 Ti  22       9.258923   -0.028158    0.000571      12.0000     47.8670
    6   1 Ti  22      11.580555    2.288424    1.503093      12.0000     47.8670
    7   1 Ti  22      -0.013612    4.609410    0.000485      12.0000     47.8670
    8   1 Ti  22       2.311741    6.918355    1.504021      12.0000     47.8670
    9   1 Ti  22       4.628310    4.609941   -0.002816      12.0000     47.8670
   10   1 Ti  22       6.943042    6.925038    1.532224      12.0000     47.8670
   11   1 Ti  22       9.261815    4.606061    0.001595      12.0000     47.8670
   12   1 Ti  22      11.575470    6.932722    1.504016      12.0000     47.8670
   13   1 Ti  22      -0.009294    9.239940    0.000700      12.0000     47.8670
   14   1 Ti  22       2.306445   11.562625    1.503088      12.0000     47.8670
   15   1 Ti  22       4.625292    9.243553    0.001652      12.0000     47.8670
   16   1 Ti  22       6.951244   11.557783    1.504169      12.0000     47.8670
   17   1 Ti  22       9.257913    9.239059   -0.002868      12.0000     47.8670
   18   1 Ti  22      11.578877   11.560766    1.510093      12.0000     47.8670
   19   1 Ti  22      -0.012143   -0.030042    3.008400      12.0000     47.8670
   20   1 Ti  22       2.314574    2.296697    4.515069      12.0000     47.8670
   21   1 Ti  22       4.623049   -0.031973    3.008733      12.0000     47.8670
   22   1 Ti  22       6.942462    2.286172    4.515482      12.0000     47.8670
   23   1 Ti  22       9.263073   -0.028691    3.008614      12.0000     47.8670
   24   1 Ti  22      11.583410    2.285557    4.514864      12.0000     47.8670
   25   1 Ti  22      -0.013676    4.605385    3.008538      12.0000     47.8670
   26   1 Ti  22       2.304293    6.924053    4.515458      12.0000     47.8670
   27   1 Ti  22       4.643823    4.625148    3.007872      12.0000     47.8670
   28   1 Ti  22       6.943989    6.925739    4.515698      12.0000     47.8670
   29   1 Ti  22       9.262179    4.605984    3.012191      12.0000     47.8670
   30   1 Ti  22      11.582221    6.926239    4.515448      12.0000     47.8670
   31   1 Ti  22      -0.010575    9.244795    3.008765      12.0000     47.8670
   32   1 Ti  22       2.302740   11.565254    4.514940      12.0000     47.8670
   33   1 Ti  22       4.623904    9.243996    3.012166      12.0000     47.8670
   34   1 Ti  22       6.943624   11.564162    4.515455      12.0000     47.8670
   35   1 Ti  22       9.243366    9.225212    3.008031      12.0000     47.8670
   36   1 Ti  22      11.572636   11.554754    4.514890      12.0000     47.8670
   37   1 Ti  22      -0.011657   -0.030016    6.021052      12.0000     47.8670
   38   1 Ti  22       2.308244    2.289872    7.519355      12.0000     47.8670
   39   1 Ti  22       4.623494   -0.032048    6.021856      12.0000     47.8670
   40   1 Ti  22       6.936215    2.293167    7.526674      12.0000     47.8670
   41   1 Ti  22       9.263536   -0.028629    6.021747      12.0000     47.8670
   42   1 Ti  22      11.580938    2.288559    7.526617      12.0000     47.8670
   43   1 Ti  22      -0.013214    4.605144    6.021706      12.0000     47.8670
   44   1 Ti  22       2.311865    6.918498    7.526712      12.0000     47.8670
   45   1 Ti  22       4.643933    4.624915    6.022897      12.0000     47.8670
   46   1 Ti  22       6.943179    6.925176    7.498820      12.0000     47.8670
   47   1 Ti  22       9.262607    4.605729    6.017825      12.0000     47.8670
   48   1 Ti  22      11.575771    6.932859    7.526798      12.0000     47.8670
   49   1 Ti  22      -0.010069    9.244657    6.021749      12.0000     47.8670
   50   1 Ti  22       2.306712   11.563016    7.526676      12.0000     47.8670
   51   1 Ti  22       4.624048    9.244179    6.017535      12.0000     47.8670
   52   1 Ti  22       6.951500   11.557905    7.526543      12.0000     47.8670
   53   1 Ti  22       9.243803    9.225228    6.022890      12.0000     47.8670
   54   1 Ti  22      11.579113   11.561026    7.519730      12.0000     47.8670
   55   1 Ti  22      -0.011612   -0.030164    9.030351      12.0000     47.8670
   56   1 Ti  22       2.307335    2.289303   10.533555      12.0000     47.8670
   57   1 Ti  22       4.628364   -0.032667    9.029754      12.0000     47.8670
   58   1 Ti  22       6.941939    2.288203   10.536042      12.0000     47.8670
   59   1 Ti  22       9.258859   -0.027971    9.029845      12.0000     47.8670
   60   1 Ti  22      11.579916    2.288995   10.534709      12.0000     47.8670
   61   1 Ti  22      -0.013710    4.609765    9.029602      12.0000     47.8670
   62   1 Ti  22       2.306192    6.924227   10.535730      12.0000     47.8670
   63   1 Ti  22       4.627799    4.609670    9.033528      12.0000     47.8670
   64   1 Ti  22       6.942727    6.925262   10.523192      12.0000     47.8670
   65   1 Ti  22       9.261625    4.606382    9.028253      12.0000     47.8670
   66   1 Ti  22      11.580518    6.926698   10.535927      12.0000     47.8670
   67   1 Ti  22      -0.009470    9.240258    9.029722      12.0000     47.8670
   68   1 Ti  22       2.306405   11.562030   10.534743      12.0000     47.8670
   69   1 Ti  22       4.625215    9.243743    9.028007      12.0000     47.8670
   70   1 Ti  22       6.944202   11.562807   10.535925      12.0000     47.8670
   71   1 Ti  22       9.257631    9.239101    9.033645      12.0000     47.8670
   72   1 Ti  22      11.578905   11.561004   10.533240      12.0000     47.8670
   73   1 Ti  22      -0.012317   -0.030135   12.039196      12.0000     47.8670
   74   1 Ti  22       2.307849    2.289806   13.545615      12.0000     47.8670
   75   1 Ti  22       4.621547   -0.028994   12.039786      12.0000     47.8670
   76   1 Ti  22       6.942307    2.288160   13.543737      12.0000     47.8670
   77   1 Ti  22       9.264472   -0.031284   12.039635      12.0000     47.8670
   78   1 Ti  22      11.580298    2.288939   13.543879      12.0000     47.8670
   79   1 Ti  22      -0.010829    4.604054   12.039566      12.0000     47.8670
   80   1 Ti  22       2.306457    6.924379   13.543866      12.0000     47.8670
   81   1 Ti  22       4.633391    4.614617   12.039929      12.0000     47.8670
   82   1 Ti  22       6.943029    6.925625   13.556546      12.0000     47.8670
   83   1 Ti  22       9.261207    4.607032   12.039442      12.0000     47.8670
   84   1 Ti  22      11.580742    6.926706   13.543827      12.0000     47.8670
   85   1 Ti  22      -0.013214    9.246252   12.039693      12.0000     47.8670
   86   1 Ti  22       2.306728   11.562252   13.543951      12.0000     47.8670
   87   1 Ti  22       4.624600    9.243353   12.039275      12.0000     47.8670
   88   1 Ti  22       6.944539   11.562844   13.543694      12.0000     47.8670
   89   1 Ti  22       9.253056    9.235236   12.039824      12.0000     47.8670
   90   1 Ti  22      11.579226   11.561254   13.545466      12.0000     47.8670
   91   2 O    8       1.406364    1.384732   -0.000657       6.0000     15.9994
   92   2 O    8       3.203408    3.182695   -0.005485       6.0000     15.9994
   93   2 O    8       0.887664    3.708867    1.504409       6.0000     15.9994
   94   2 O    8       3.728658    0.867937    1.504891       6.0000     15.9994
   95   2 O    8       6.048120    1.382124   -0.002999       6.0000     15.9994
   96   2 O    8       7.844381    3.186080   -0.000048       6.0000     15.9994
   97   2 O    8       5.513554    3.685830    1.490581       6.0000     15.9994
   98   2 O    8       8.363188    0.870225    1.505655       6.0000     15.9994
   99   2 O    8      10.682982    1.388524    0.000291       6.0000     15.9994
  100   2 O    8      12.482216    3.188431    0.000376       6.0000     15.9994
  101   2 O    8      10.167414    3.702797    1.504410       6.0000     15.9994
  102   2 O    8      12.999526    0.870862    1.503871       6.0000     15.9994
  103   2 O    8       1.403918    6.027709   -0.003718       6.0000     15.9994
  104   2 O    8       3.206780    7.824434   -0.000088       6.0000     15.9994
  105   2 O    8       0.889732    8.343055    1.505571       6.0000     15.9994
  106   2 O    8       3.706020    5.494575    1.490779       6.0000     15.9994
  107   2 O    8       6.039367    6.020747   -0.022368       6.0000     15.9994
  108   2 O    8       7.849706    7.830158   -0.022499       6.0000     15.9994
  109   2 O    8       5.518595    8.351182    1.499345       6.0000     15.9994
  110   2 O    8       8.370659    5.499434    1.499151       6.0000     15.9994
  111   2 O    8      10.684720    6.026008   -0.000209       6.0000     15.9994
  112   2 O    8      12.488251    7.822515   -0.003072       6.0000     15.9994
  113   2 O    8      10.183881    8.355514    1.490197       6.0000     15.9994
  114   2 O    8      13.000942    5.507752    1.505649       6.0000     15.9994
  115   2 O    8       1.408889   10.662350    0.000390       6.0000     15.9994
  116   2 O    8       3.208056   12.462337    0.000396       6.0000     15.9994
  117   2 O    8       0.890313   12.979805    1.504325       6.0000     15.9994
  118   2 O    8       3.722634   10.148400    1.503972       6.0000     15.9994
  119   2 O    8       6.046877   10.664465   -0.000049       6.0000     15.9994
  120   2 O    8       7.842642   12.468716   -0.003094       6.0000     15.9994
  121   2 O    8       5.527132   12.980679    1.505781       6.0000     15.9994
  122   2 O    8       8.375462   10.163802    1.490477       6.0000     15.9994
  123   2 O    8      10.687223   10.667436   -0.005057       6.0000     15.9994
  124   2 O    8      12.484955   12.464662   -0.000626       6.0000     15.9994
  125   2 O    8      10.161540   12.982842    1.504615       6.0000     15.9994
  126   2 O    8      13.002497   10.141540    1.504595       6.0000     15.9994
  127   2 O    8       1.402968    1.384648    3.007757       6.0000     15.9994
  128   2 O    8       3.197930    3.179537    3.009027       6.0000     15.9994
  129   2 O    8       0.886116    3.708149    4.515397       6.0000     15.9994
  130   2 O    8       3.727148    0.867198    4.515288       6.0000     15.9994
  131   2 O    8       6.044554    1.387571    3.012901       6.0000     15.9994
  132   2 O    8       7.841582    3.188812    3.007012       6.0000     15.9994
  133   2 O    8       5.528503    3.710549    4.515674       6.0000     15.9994
  134   2 O    8       8.363238    0.873549    4.515403       6.0000     15.9994
  135   2 O    8      10.682297    1.387829    3.010106       6.0000     15.9994
  136   2 O    8      12.482533    3.187842    3.010064       6.0000     15.9994
  137   2 O    8      10.169223    3.700951    4.515508       6.0000     15.9994
  138   2 O    8      12.999060    0.870350    4.515266       6.0000     15.9994
  139   2 O    8       1.406739    6.025565    3.012857       6.0000     15.9994
  140   2 O    8       3.207554    7.823114    3.006718       6.0000     15.9994
  141   2 O    8       0.893020    8.344161    4.515372       6.0000     15.9994
  142   2 O    8       3.730218    5.509576    4.515476       6.0000     15.9994
  143   2 O    8       6.006219    5.985483    2.913648       6.0000     15.9994
  144   2 O    8       7.883082    7.863960    2.912899       6.0000     15.9994
  145   2 O    8       5.510656    8.358806    4.515522       6.0000     15.9994
  146   2 O    8       8.378659    5.492386    4.515369       6.0000     15.9994
  147   2 O    8      10.681377    6.027999    3.006738       6.0000     15.9994
  148   2 O    8      12.482287    7.825449    3.013181       6.0000     15.9994
  149   2 O    8      10.158026    8.340404    4.515513       6.0000     15.9994
  150   2 O    8      12.996003    5.506470    4.515511       6.0000     15.9994
  151   2 O    8       1.406361   10.663403    3.009979       6.0000     15.9994
  152   2 O    8       3.206585   12.463423    3.010249       6.0000     15.9994
  153   2 O    8       0.889395   12.980153    4.515161       6.0000     15.9994
  154   2 O    8       3.719342   10.149695    4.515653       6.0000     15.9994
  155   2 O    8       6.046837   10.662715    3.006941       6.0000     15.9994
  156   2 O    8       7.844752   12.463260    3.012884       6.0000     15.9994
  157   2 O    8       5.525633   12.977132    4.515345       6.0000     15.9994
  158   2 O    8       8.359356   10.138876    4.515579       6.0000     15.9994
  159   2 O    8      10.690497   10.670847    3.009096       6.0000     15.9994
  160   2 O    8      12.485386   12.466165    3.007887       6.0000     15.9994
  161   2 O    8      10.161619   12.983445    4.515145       6.0000     15.9994
  162   2 O    8      13.002803   10.142400    4.515213       6.0000     15.9994
  163   2 O    8       1.403716    1.384183    6.022902       6.0000     15.9994
  164   2 O    8       3.198656    3.179062    6.021842       6.0000     15.9994
  165   2 O    8       0.888268    3.709199    7.525938       6.0000     15.9994
  166   2 O    8       3.729199    0.867921    7.525766       6.0000     15.9994
  167   2 O    8       6.045360    1.387258    6.018033       6.0000     15.9994
  168   2 O    8       7.841969    3.188917    6.024011       6.0000     15.9994
  169   2 O    8       5.513572    3.685842    7.540328       6.0000     15.9994
  170   2 O    8       8.363870    0.870634    7.524732       6.0000     15.9994
  171   2 O    8      10.682965    1.387630    6.020516       6.0000     15.9994
  172   2 O    8      12.482929    3.187858    6.020610       6.0000     15.9994
  173   2 O    8      10.167608    3.702890    7.526415       6.0000     15.9994
  174   2 O    8      13.000256    0.871270    7.526216       6.0000     15.9994
  175   2 O    8       1.407689    6.025341    6.017814       6.0000     15.9994
  176   2 O    8       3.208216    7.823143    6.023985       6.0000     15.9994
  177   2 O    8       0.890088    8.343364    7.524747       6.0000     15.9994
  178   2 O    8       3.705898    5.494278    7.540901       6.0000     15.9994
  179   2 O    8       6.005860    5.985884    6.117758       6.0000     15.9994
  180   2 O    8       7.883579    7.863133    6.118178       6.0000     15.9994
  181   2 O    8       5.519720    8.351929    7.532174       6.0000     15.9994
  182   2 O    8       8.370793    5.499371    7.531922       6.0000     15.9994
  183   2 O    8      10.681701    6.028064    6.024379       6.0000     15.9994
  184   2 O    8      12.482632    7.825585    6.017723       6.0000     15.9994
  185   2 O    8      10.183752    8.355737    7.540783       6.0000     15.9994
  186   2 O    8      13.001364    5.508049    7.524801       6.0000     15.9994
  187   2 O    8       1.407154   10.663274    6.020864       6.0000     15.9994
  188   2 O    8       3.206991   12.463570    6.020471       6.0000     15.9994
  189   2 O    8       0.890603   12.979884    7.526137       6.0000     15.9994
  190   2 O    8       3.723681   10.149119    7.526678       6.0000     15.9994
  191   2 O    8       6.047236   10.662809    6.023723       6.0000     15.9994
  192   2 O    8       7.845327   12.463150    6.017942       6.0000     15.9994
  193   2 O    8       5.527436   12.980838    7.524851       6.0000     15.9994
  194   2 O    8       8.375128   10.163577    7.540322       6.0000     15.9994
  195   2 O    8      10.690512   10.670789    6.021539       6.0000     15.9994
  196   2 O    8      12.485617   12.466157    6.022331       6.0000     15.9994
  197   2 O    8      10.162139   12.983162    7.525770       6.0000     15.9994
  198   2 O    8      13.003010   10.141909    7.525843       6.0000     15.9994
  199   2 O    8       1.405528    1.385275    9.030821       6.0000     15.9994
  200   2 O    8       3.203546    3.182265    9.035658       6.0000     15.9994
  201   2 O    8       0.886419    3.708161   10.535250       6.0000     15.9994
  202   2 O    8       3.727181    0.866951   10.535627       6.0000     15.9994
  203   2 O    8       6.048074    1.382220    9.033845       6.0000     15.9994
  204   2 O    8       7.843949    3.186404    9.030801       6.0000     15.9994
  205   2 O    8       5.523104    3.699734   10.539165       6.0000     15.9994
  206   2 O    8       8.364660    0.872376   10.535596       6.0000     15.9994
  207   2 O    8      10.682536    1.388785    9.030099       6.0000     15.9994
  208   2 O    8      12.481918    3.188547    9.030028       6.0000     15.9994
  209   2 O    8      10.165887    3.704136   10.535828       6.0000     15.9994
  210   2 O    8      12.998780    0.870819   10.535170       6.0000     15.9994
  211   2 O    8       1.403082    6.028227    9.032975       6.0000     15.9994
  212   2 O    8       3.206305    7.824722    9.030650       6.0000     15.9994
  213   2 O    8       0.891924    8.345215   10.535570       6.0000     15.9994
  214   2 O    8       3.718837    5.503466   10.538360       6.0000     15.9994
  215   2 O    8       6.039618    6.020223    9.054048       6.0000     15.9994
  216   2 O    8       7.849722    7.829996    9.053747       6.0000     15.9994
  217   2 O    8       5.521240    8.348826   10.537108       6.0000     15.9994
  218   2 O    8       8.367671    5.502111   10.537334       6.0000     15.9994
  219   2 O    8      10.684344    6.026283    9.030807       6.0000     15.9994
  220   2 O    8      12.488156    7.822691    9.033834       6.0000     15.9994
  221   2 O    8      10.170052    8.346692   10.538862       6.0000     15.9994
  222   2 O    8      12.997735    5.505411   10.535459       6.0000     15.9994
  223   2 O    8       1.408462   10.662570    9.030027       6.0000     15.9994
  224   2 O    8       3.207765   12.462424    9.030296       6.0000     15.9994
  225   2 O    8       0.889926   12.979787   10.535291       6.0000     15.9994
  226   2 O    8       3.722887   10.146686   10.535881       6.0000     15.9994
  227   2 O    8       6.046313   10.664893    9.030998       6.0000     15.9994
  228   2 O    8       7.842510   12.468779    9.033356       6.0000     15.9994
  229   2 O    8       5.524550   12.978317   10.535511       6.0000     15.9994
  230   2 O    8       8.365737   10.150464   10.538853       6.0000     15.9994
  231   2 O    8      10.687115   10.667557    9.035396       6.0000     15.9994
  232   2 O    8      12.484600   12.464943    9.030979       6.0000     15.9994
  233   2 O    8      10.161773   12.983595   10.535463       6.0000     15.9994
  234   2 O    8      13.002899   10.142457   10.535446       6.0000     15.9994
  235   2 O    8       1.404653    1.386047   12.039565       6.0000     15.9994
  236   2 O    8       3.203739    3.185122   12.039899       6.0000     15.9994
  237   2 O    8       0.886814    3.707968   13.544179       6.0000     15.9994
  238   2 O    8       3.727974    0.867058   13.543855       6.0000     15.9994
  239   2 O    8       6.046404    1.384551   12.039804       6.0000     15.9994
  240   2 O    8       7.844306    3.186960   12.039878       6.0000     15.9994
  241   2 O    8       5.523711    3.699647   13.540922       6.0000     15.9994
  242   2 O    8       8.365148    0.872526   13.543993       6.0000     15.9994
  243   2 O    8      10.682226    1.388876   12.039778       6.0000     15.9994
  244   2 O    8      12.481519    3.188104   12.039748       6.0000     15.9994
  245   2 O    8      10.166214    3.704114   13.543942       6.0000     15.9994
  246   2 O    8      12.999630    0.871064   13.544295       6.0000     15.9994
  247   2 O    8       1.403780    6.027422   12.039907       6.0000     15.9994
  248   2 O    8       3.206324    7.825255   12.039721       6.0000     15.9994
  249   2 O    8       0.892398    8.345280   13.544000       6.0000     15.9994
  250   2 O    8       3.720554    5.503860   13.541764       6.0000     15.9994
  251   2 O    8       6.040277    6.022169   12.040151       6.0000     15.9994
  252   2 O    8       7.847909    7.828707   12.040030       6.0000     15.9994
  253   2 O    8       5.522077    8.349184   13.542878       6.0000     15.9994
  254   2 O    8       8.367944    5.502110   13.542824       6.0000     15.9994
  255   2 O    8      10.683149    6.025787   12.039889       6.0000     15.9994
  256   2 O    8      12.485766    7.823550   12.039759       6.0000     15.9994
  257   2 O    8      10.170281    8.346604   13.540902       6.0000     15.9994
  258   2 O    8      12.998479    5.505598   13.544234       6.0000     15.9994
  259   2 O    8       1.407423   10.663322   12.039852       6.0000     15.9994
  260   2 O    8       3.206762   12.462469   12.039777       6.0000     15.9994
  261   2 O    8       0.890389   12.979736   13.543946       6.0000     15.9994
  262   2 O    8       3.723828   10.147024   13.544247       6.0000     15.9994
  263   2 O    8       6.044493   10.664557   12.039728       6.0000     15.9994
  264   2 O    8       7.842635   12.466584   12.039897       6.0000     15.9994
  265   2 O    8       5.524938   12.978190   13.544237       6.0000     15.9994
  266   2 O    8       8.366281   10.150597   13.540812       6.0000     15.9994
  267   2 O    8      10.684875   10.665908   12.039634       6.0000     15.9994
  268   2 O    8      12.484030   12.464931   12.039691       6.0000     15.9994
  269   2 O    8      10.162389   12.983702   13.544022       6.0000     15.9994
  270   2 O    8      13.003312   10.142375   13.543961       6.0000     15.9994




 SCF PARAMETERS         Density guess:                                   RESTART
                        --------------------------------------------------------
                        max_scf:                                             100
                        max_scf_history:                                       0
                        max_diis:                                              4
                        --------------------------------------------------------
                        eps_scf:                                        5.00E-07
                        eps_scf_history:                                0.00E+00
                        eps_diis:                                       1.00E-01
                        eps_eigval:                                     1.00E-05
                        --------------------------------------------------------
                        level_shift [a.u.]:                             0.000000
                        --------------------------------------------------------
                        Outer loop SCF in use 
                        No variables optimised in outer loop
                        eps_scf                                         5.00E-07
                        max_scf                                               20
                        DIIS optimization
                        DIIS buffer length                                     3
                        step_size                                       1.50E-01

 PW_GRID| Information for grid number                                          1
 PW_GRID| Grid distributed over                                    40 processors
 PW_GRID| Real space group dimensions                                    40    1
 PW_GRID| the grid is blocked:                                                NO
 PW_GRID| Cutoff [a.u.]                                                    400.0
 PW_GRID| spherical cutoff:                                                   NO
 PW_GRID|   Bounds   1           -120     119                Points:         240
 PW_GRID|   Bounds   2           -120     119                Points:         240
 PW_GRID|   Bounds   3           -144     143                Points:         288
 PW_GRID| Volume element (a.u.^3)  0.1185E-02     Volume (a.u.^3)     19651.0990
 PW_GRID| Grid span                                                    FULLSPACE
 PW_GRID|   Distribution                         Average         Max         Min
 PW_GRID|   G-Vectors                           414720.0      414720      414720
 PW_GRID|   G-Rays                                1728.0        1728        1728
 PW_GRID|   Real Space Points                   414720.0      414720      414720

 PW_GRID| Information for grid number                                          2
 PW_GRID| Number of the reference grid                                         1
 PW_GRID| Grid distributed over                                    40 processors
 PW_GRID| Real space group dimensions                                    40    1
 PW_GRID| the grid is blocked:                                                NO
 PW_GRID| Cutoff [a.u.]                                                    100.0
 PW_GRID| spherical cutoff:                                                   NO
 PW_GRID|   Bounds   1            -60      59                Points:         120
 PW_GRID|   Bounds   2            -60      59                Points:         120
 PW_GRID|   Bounds   3            -72      71                Points:         144
 PW_GRID| Volume element (a.u.^3)  0.9477E-02     Volume (a.u.^3)     19651.0990
 PW_GRID| Grid span                                                    FULLSPACE
 PW_GRID|   Distribution                         Average         Max         Min
 PW_GRID|   G-Vectors                            51840.0       52680       51000
 PW_GRID|   G-Rays                                 432.0         439         425
 PW_GRID|   Real Space Points                    51840.0       51840       51840

 PW_GRID| Information for grid number                                          3
 PW_GRID| Number of the reference grid                                         1
 PW_GRID| Grid distributed over                                    40 processors
 PW_GRID| Real space group dimensions                                    40    1
 PW_GRID| the grid is blocked:                                                NO
 PW_GRID| Cutoff [a.u.]                                                     25.0
 PW_GRID| spherical cutoff:                                                   NO
 PW_GRID|   Bounds   1            -30      29                Points:          60
 PW_GRID|   Bounds   2            -30      29                Points:          60
 PW_GRID|   Bounds   3            -36      35                Points:          72
 PW_GRID| Volume element (a.u.^3)  0.7581E-01     Volume (a.u.^3)     19651.0990
 PW_GRID| Grid span                                                    FULLSPACE
 PW_GRID|   Distribution                         Average         Max         Min
 PW_GRID|   G-Vectors                             6480.0        6720        6300
 PW_GRID|   G-Rays                                 108.0         112         105
 PW_GRID|   Real Space Points                     6480.0        8640        4320

 PW_GRID| Information for grid number                                          4
 PW_GRID| Number of the reference grid                                         1
 PW_GRID| Grid distributed over                                    40 processors
 PW_GRID| Real space group dimensions                                    40    1
 PW_GRID| the grid is blocked:                                                NO
 PW_GRID| Cutoff [a.u.]                                                      6.2
 PW_GRID| spherical cutoff:                                                   NO
 PW_GRID|   Bounds   1            -15      14                Points:          30
 PW_GRID|   Bounds   2            -15      14                Points:          30
 PW_GRID|   Bounds   3            -18      17                Points:          36
 PW_GRID| Volume element (a.u.^3)  0.6065         Volume (a.u.^3)     19651.0990
 PW_GRID| Grid span                                                    FULLSPACE
 PW_GRID|   Distribution                         Average         Max         Min
 PW_GRID|   G-Vectors                              810.0         930         750
 PW_GRID|   G-Rays                                  27.0          31          25
 PW_GRID|   Real Space Points                      810.0        1080           0

 PW_GRID| Information for grid number                                          5
 PW_GRID| Number of the reference grid                                         1
 PW_GRID| Grid distributed over                                    40 processors
 PW_GRID| Real space group dimensions                                    40    1
 PW_GRID| the grid is blocked:                                                NO
 PW_GRID| Cutoff [a.u.]                                                      1.6
 PW_GRID| spherical cutoff:                                                   NO
 PW_GRID|   Bounds   1             -7       7                Points:          15
 PW_GRID|   Bounds   2             -7       7                Points:          15
 PW_GRID|   Bounds   3             -9       8                Points:          18
 PW_GRID| Volume element (a.u.^3)   4.852         Volume (a.u.^3)     19651.0990
 PW_GRID| Grid span                                                    FULLSPACE
 PW_GRID|   Distribution                         Average         Max         Min
 PW_GRID|   G-Vectors                              101.2         150          75
 PW_GRID|   G-Rays                                   6.8          10           5
 PW_GRID|   Real Space Points                      101.2         270           0

 POISSON| Solver                                                        PERIODIC
 POISSON| Periodicity                                                        XYZ

 RS_GRID| Information for grid number                                          1
 RS_GRID|   Bounds   1           -120     119                Points:         240
 RS_GRID|   Bounds   2           -120     119                Points:         240
 RS_GRID|   Bounds   3           -144     143                Points:         288
 RS_GRID| Real space distribution over                                  5 groups
 RS_GRID| Real space distribution along direction                              2
 RS_GRID| Border size                                                         32
 RS_GRID| Real space distribution over                                  8 groups
 RS_GRID| Real space distribution along direction                              3
 RS_GRID| Border size                                                         32
 RS_GRID|   Distribution                         Average         Max         Min
 RS_GRID|   Planes                                 112.0         112         112
 RS_GRID|   Distribution                         Average         Max         Min
 RS_GRID|   Planes                                 100.0         100         100

 RS_GRID| Information for grid number                                          2
 RS_GRID|   Bounds   1            -60      59                Points:         120
 RS_GRID|   Bounds   2            -60      59                Points:         120
 RS_GRID|   Bounds   3            -72      71                Points:         144
 RS_GRID| Real space distribution over                                  5 groups
 RS_GRID| Real space distribution along direction                              2
 RS_GRID| Border size                                                         28
 RS_GRID| Real space distribution over                                  8 groups
 RS_GRID| Real space distribution along direction                              3
 RS_GRID| Border size                                                         28
 RS_GRID|   Distribution                         Average         Max         Min
 RS_GRID|   Planes                                  80.0          80          80
 RS_GRID|   Distribution                         Average         Max         Min
 RS_GRID|   Planes                                  74.0          74          74

 RS_GRID| Information for grid number                                          3
 RS_GRID|   Bounds   1            -30      29                Points:          60
 RS_GRID|   Bounds   2            -30      29                Points:          60
 RS_GRID|   Bounds   3            -36      35                Points:          72
 RS_GRID| Real space fully replicated
 RS_GRID| Group size                                                           1

 RS_GRID| Information for grid number                                          4
 RS_GRID|   Bounds   1            -15      14                Points:          30
 RS_GRID|   Bounds   2            -15      14                Points:          30
 RS_GRID|   Bounds   3            -18      17                Points:          36
 RS_GRID| Real space fully replicated
 RS_GRID| Group size                                                           1

 RS_GRID| Information for grid number                                          5
 RS_GRID|   Bounds   1             -7       7                Points:          15
 RS_GRID|   Bounds   2             -7       7                Points:          15
 RS_GRID|   Bounds   3             -9       8                Points:          18
 RS_GRID| Real space fully replicated
 RS_GRID| Group size                                                           1

 BFGS| Use rational function optimization for step estimation:                NO
 BFGS| Use model Hessian for initial guess:                                  YES
 BFGS| Restart Hessian:                                                       NO
 BFGS| Trust radius:                                                       0.472

 *** WARNING in fm/cp_fm_elpa.F:521 :: Setting real_kernel for ELPA failed ***


 *******************************************************************************
 ***                     STARTING GEOMETRY OPTIMIZATION                      ***
 ***                                   BFGS                                  ***
 *******************************************************************************

 Spin 1

 Number of electrons:                                                       1081
 Number of occupied orbitals:                                               1081
 Number of molecular orbitals:                                              1081

 Spin 2

 Number of electrons:                                                       1080
 Number of occupied orbitals:                                               1080
 Number of molecular orbitals:                                              1080

 Number of orbital functions:                                               4680

 *** WARNING in fm/cp_fm_elpa.F:521 :: Setting real_kernel for ELPA failed ***

 Number of independent orbital functions:                                   4680

 Extrapolation method: initial_guess


 CDFT EXTERNAL SCF WAVEFUNCTION OPTIMIZATION

  ---------------------------------- CDFT --------------------------------------
  Optimizing a density constraint in an external SCF loop 
  
  Type of constraint:     Hirshfeld
  Number of constraints:          1
  Using fragment densities:       F
  
  Calculating atomic CDFT charges

  Minimizer               : Secant

  Reusing OT preconditioner:       F

  Hirshfeld constraint settings
  
  Shape function type:      Density

  ---------------------------------- CDFT --------------------------------------


 SCF WAVEFUNCTION OPTIMIZATION

  ----------------------------------- OT ---------------------------------------
  Minimizer      : CG                  : conjugate gradient
  Preconditioner : FULL_ALL            : diagonalization, state selective
  Precond_solver : DEFAULT
  Line search    : 2PNT                : 2 energies, one gradient
  stepsize       :    0.15000000                  energy_gap     :    0.00100000
  ortho_irac     : CHOL                           irac_degree    :             4
  max_irac       :            50                  eps_irac       :   0.10000E-09
  eps_irac_switch:   0.10000E-01                  eps_irac_quick_exit: 0.100E-04
  on_the_fly_loc : F
  ----------------------------------- OT ---------------------------------------

  Step     Update method      Time    Convergence         Total energy    Change
  ------------------------------------------------------------------------------

  ----------------------- CDFT group definitions -------------------------
    Atomic group    1 of     1
    Atom  Element  Coefficient
      46       Ti        1.000
  ------------------------------------------------------------------------

  ------------------- Hirshfeld constraint information -------------------
  Atomic group                :                                          1
  Type of constraint          :           Magnetization density constraint
  Target value of constraint  :                             1.000000000000
  Current value of constraint :                             0.024364379832
  Deviation from target       :                                 -9.756E-01
  Strength of constraint      :                            -0.024344071261
  ------------------------------------------------------------------------

  ------------------------------------------ CDFT atomic charges -------------------------------------------
  #Atom  Element   Is_constraint   Core charge    Population (alpha, beta)    Net charge      Spin population
     46       Ti               T        12.000         5.691         5.667         0.642                0.024

  Total Charge and Spin Moment:                                                    0.642                0.024


 *** WARNING in fm/cp_fm_elpa.F:521 :: Setting real_kernel for ELPA failed ***


 *** WARNING in fm/cp_fm_elpa.F:521 :: Setting real_kernel for ELPA failed ***


 *** WARNING in fm/cp_fm_elpa.F:521 :: Setting real_kernel for ELPA failed ***


 *** WARNING in fm/cp_fm_elpa.F:521 :: Setting real_kernel for ELPA failed ***


[...]
 *  \___/        mp_world_finalize: assert failed:  leaking communicators      *
 *    |                                                                        *
 *  O/|                                                                        *
 * /| |                                                                        *
 * / \                                           mpiwrap/message_passing.F:843 *
 *******************************************************************************


 *******************************************************************************
 *   ___                                                                       *
 *  /   \                                                                      *
 * [ABORT]                                                                     *
 *  \___/        mp_world_finalize: assert failed:  leaking communicators      *
 *    |                                                                        *
 *  O/|                                                                        *
 * /| |                                                                        *
 * / \                                           mpiwrap/message_passing.F:843 *
 *******************************************************************************


 *******************************************************************************
 *   ___                                                                       *
 *  /   \                                                                      *
 * [ABORT]                                                                     *
 *  \___/        mp_world_finalize: assert failed:  leaking communicators      *
 *    |                                                                        *
 *  O/|                                                                        *
 * /| |                                                                        *
 * / \                                           mpiwrap/message_passing.F:843 *
 *******************************************************************************


 *******************************************************************************
 *   ___                                                                       *
 *  /   \                                                                      *
 * [ABORT]                                                                     *
 *  \___/        mp_world_finalize: assert failed:  leaking communicators      *
 *    |                                                                        *
 *  O/|                                                                        *
 * /| |                                                                        *
 * / \                                           mpiwrap/message_passing.F:843 *
 *******************************************************************************


 *******************************************************************************
 *   ___                                                                       *
 *  /   \                                                                      *
 * [ABORT]                                                                     *
 *  \___/        mp_world_finalize: assert failed:  leaking communicators      *
 *    |                                                                        *
 *  O/|                                                                        *
 * /| |                                                                        *
 * / \                                           mpiwrap/message_passing.F:843 *
 *******************************************************************************


 *******************************************************************************
 *   ___                                                                       *
 *  /   \                                                                      *
 * [ABORT]                                                                     *
 *  \___/        mp_world_finalize: assert failed:  leaking communicators      *
 *    |                                                                        *
 *  O/|                                                                        *
 * /| |                                                                        *
 * / \                                           mpiwrap/message_passing.F:843 *
 *******************************************************************************


 *******************************************************************************
 *   ___                                                                       *
 *  /   \                                                                      *
 * [ABORT]                                                                     *
 *  \___/        mp_world_finalize: assert failed:  leaking communicators      *
 *    |                                                                        *
 *  O/|                                                                        *
 * /| |                                                                        *
 * / \                                           mpiwrap/message_passing.F:843 *
 *******************************************************************************


 *******************************************************************************
 *   ___                                                                       *
 *  /   \                                                                      *
 * [ABORT]                                                                     *
 *  \___/        mp_world_finalize: assert failed:  leaking communicators      *
 *    |                                                                        *
 *  O/|                                                                        *
 * /| |                                                                        *
 * / \                                           mpiwrap/message_passing.F:843 *
 *******************************************************************************


 *******************************************************************************
 *   ___                                                                       *
 *  /   \                                                                      *
 * [ABORT]                                                                     *
 *  \___/        mp_world_finalize: assert failed:  leaking communicators      *
 *    |                                                                        *
 *  O/|                                                                        *
 * /| |                                                                        *
 * / \                                           mpiwrap/message_passing.F:843 *
 *******************************************************************************


 *******************************************************************************
 *   ___                                                                       *
 *  /   \                                                                      *
 * [ABORT]                                                                     *
 *  \___/        mp_world_finalize: assert failed:  leaking communicators      *
 *    |                                                                        *
 *  O/|                                                                        *
 * /| |                                                                        *
 * / \                                           mpiwrap/message_passing.F:843 *
 *******************************************************************************


 *******************************************************************************
 *   ___                                                                       *
 *  /   \                                                                      *
 * [ABORT]                                                                     *
 *  \___/        mp_world_finalize: assert failed:  leaking communicators      *
 *    |                                                                        *
 *  O/|                                                                        *
 * /| |                                                                        *
 * / \                                           mpiwrap/message_passing.F:843 *
 *******************************************************************************


 *******************************************************************************
 *   ___                                                                       *
 *  /   \                                                                      *
 * [ABORT]                                                                     *
 *  \___/        mp_world_finalize: assert failed:  leaking communicators      *
 *    |                                                                        *
 *  O/|                                                                        *
 * /| |                                                                        *
 * / \                                           mpiwrap/message_passing.F:843 *
 *******************************************************************************


 *******************************************************************************
 *   ___                                                                       *
 *  /   \                                                                      *
 * [ABORT]                                                                     *
 *  \___/        mp_world_finalize: assert failed:  leaking communicators      *
 *    |                                                                        *
 *  O/|                                                                        *
 * /| |                                                                        *
 * / \                                           mpiwrap/message_passing.F:843 *
 *******************************************************************************


 *******************************************************************************
 *   ___                                                                       *
 *  /   \                                                                      *
 * [ABORT]                                                                     *
 *  \___/        mp_world_finalize: assert failed:  leaking communicators      *
 *    |                                                                        *
 *  O/|                                                                        *
 * /| |                                                                        *
 * / \                                           mpiwrap/message_passing.F:843 *
 *******************************************************************************


 *******************************************************************************
 *   ___                                                                       *
 *  /   \                                                                      *
 * [ABORT]                                                                     *
 *  \___/        mp_world_finalize: assert failed:  leaking communicators      *
 *    |                                                                        *
 *  O/|                                                                        *
 * /| |                                                                        *
 * / \                                           mpiwrap/message_passing.F:843 *
 *******************************************************************************


 *******************************************************************************
 *   ___                                                                       *
 *  /   \                                                                      *
 * [ABORT]                                                                     *
 *  \___/        mp_world_finalize: assert failed:  leaking communicators      *
 *    |                                                                        *
 *  O/|                                                                        *
 * /| |                                                                        *
 * / \                                           mpiwrap/message_passing.F:843 *
 *******************************************************************************


 *******************************************************************************
 *   ___                                                                       *
 *  /   \                                                                      *
 * [ABORT]                                                                     *
 *  \___/        mp_world_finalize: assert failed:  leaking communicators      *
 *    |                                                                        *
 *  O/|                                                                        *
 * /| |                                                                        *
 * / \                                           mpiwrap/message_passing.F:843 *
 *******************************************************************************


 *******************************************************************************
 *   ___                                                                       *
 *  /   \                                                                      *
 * [ABORT]                                                                     *
 *  \___/        mp_world_finalize: assert failed:  leaking communicators      *
 *    |                                                                        *
 *  O/|                                                                        *
 * /| |                                                                        *
 * / \                                           mpiwrap/message_passing.F:843 *
 *******************************************************************************


 *******************************************************************************
 *   ___                                                                       *
 *  /   \                                                                      *
 * [ABORT]                                                                     *
 *  \___/        mp_world_finalize: assert failed:  leaking communicators      *
 *    |                                                                        *
 *  O/|                                                                        *
 * /| |                                                                        *
 * / \                                           mpiwrap/message_passing.F:843 *
 *******************************************************************************


 *******************************************************************************
 *   ___                                                                       *
 *  /   \                                                                      *
 * [ABORT]                                                                     *
 *  \___/        mp_world_finalize: assert failed:  leaking communicators      *
 *    |                                                                        *
 *  O/|                                                                        *
 * /| |                                                                        *
 * / \                                           mpiwrap/message_passing.F:843 *
 *******************************************************************************


 *******************************************************************************
 *   ___                                                                       *
 *  /   \                                                                      *
 * [ABORT]                                                                     *
 *  \___/        mp_world_finalize: assert failed:  leaking communicators      *
 *    |                                                                        *
 *  O/|                                                                        *
 * /| |                                                                        *
 * / \                                           mpiwrap/message_passing.F:843 *
 *******************************************************************************


 *******************************************************************************
 *   ___                                                                       *
 *  /   \                                                                      *
 * [ABORT]                                                                     *
 *  \___/        mp_world_finalize: assert failed:  leaking communicators      *
 *    |                                                                        *
 *  O/|                                                                        *
 * /| |                                                                        *
 * / \                                           mpiwrap/message_passing.F:843 *
 *******************************************************************************


 *******************************************************************************
 *   ___                                                                       *
 *  /   \                                                                      *
 * [ABORT]                                                                     *
 *  \___/        mp_world_finalize: assert failed:  leaking communicators      *
 *    |                                                                        *
 *  O/|                                                                        *
 * /| |                                                                        *
 * / \                                           mpiwrap/message_passing.F:843 *
 *******************************************************************************


 *******************************************************************************
 *   ___                                                                       *
 *  /   \                                                                      *
 * [ABORT]                                                                     *
 *  \___/        mp_world_finalize: assert failed:  leaking communicators      *
 *    |                                                                        *
 *  O/|                                                                        *
 * /| |                                                                        *
 * / \                                           mpiwrap/message_passing.F:843 *
 *******************************************************************************


 *******************************************************************************
 *   ___                                                                       *
 *  /   \                                                                      *
 * [ABORT]                                                                     *
 *  \___/        mp_world_finalize: assert failed:  leaking communicators      *
 *    |                                                                        *
 *  O/|                                                                        *
 * /| |                                                                        *
 * / \                                           mpiwrap/message_passing.F:843 *
 *******************************************************************************

