 DBCSR| CPU Multiplication driver                                           XSMM
 DBCSR| Multrec recursion limit                                              512
 DBCSR| Multiplication stack size                                           1000
 DBCSR| Maximum elements for images                                    UNLIMITED
 DBCSR| Multiplicative factor virtual images                                   1
 DBCSR| Use multiplication densification                                       T
 DBCSR| Multiplication size stacks                                             3
 DBCSR| Use memory pool for CPU allocation                                     F
 DBCSR| Number of 3D layers                                               SINGLE
 DBCSR| Use MPI memory allocation                                              F
 DBCSR| Use RMA algorithm                                                      F
 DBCSR| Use Communication thread                                               T
 DBCSR| Communication thread load                                             87
 DBCSR| MPI: My node id                                                        0
 DBCSR| MPI: Number of nodes                                                  40
 DBCSR| OMP: Current number of threads                                         1
 DBCSR| OMP: Max number of threads                                             1
 DBCSR| Split modifier for TAS multiplication algorithm                  1.0E+00


  **** **** ******  **  PROGRAM STARTED AT               2023-05-20 10:19:07.439
 ***** ** ***  *** **   PROGRAM STARTED ON                               node164
 **    ****   ******    PROGRAM STARTED BY                                  wyin
 ***** **    ** ** **   PROGRAM PROCESS ID                                  8079
  **** **  *******  **  PROGRAM STARTED IN /home/wyin/bozai/job/1-TiO2/2-slab-11
                                           0/1-pure/3-Marcus/3-Hab/3-40-44

 CP2K| version string:                                       CP2K version 2022.1
 CP2K| source code revision number:                                  git:2caeb6f
 CP2K| cp2kflags: omp libint fftw3 libxc elpa parallel mpi3 scalapack xsmm plume
 CP2K|            d2 spglib mkl libvori libbqb
 CP2K| is freely available from                            https://www.cp2k.org/
 CP2K| Program compiled at                          Mon Mar 13 16:18:57 CET 2023
 CP2K| Program compiled on                                               login02
 CP2K| Program compiled for                                                local
 CP2K| Data directory path                   /home/wyin/package/cp2k-2022.1/data
 CP2K| Input file name                                                 input.inp
 
 GLOBAL| Force Environment number                                              1
 GLOBAL| Basis set file name                                           BASIS_SET
 GLOBAL| Potential file name                                           POTENTIAL
 GLOBAL| MM Potential file name                                     MM_POTENTIAL
 GLOBAL| Coordinate file name                                      pure-slab.xyz
 GLOBAL| Force Environment number                                              2
 GLOBAL| Basis set file name            /home/wyin/bozai/Bootstrap/BASIS_SET/BAS
 GLOBAL| Potential file name            /home/wyin/bozai/Bootstrap/BASIS_SET/GTH
 GLOBAL| MM Potential file name                                     MM_POTENTIAL
 GLOBAL| Coordinate file name                                      __STD_INPUT__
 GLOBAL| Force Environment number                                              3
 GLOBAL| Basis set file name            /home/wyin/bozai/Bootstrap/BASIS_SET/BAS
 GLOBAL| Potential file name            /home/wyin/bozai/Bootstrap/BASIS_SET/GTH
 GLOBAL| MM Potential file name                                     MM_POTENTIAL
 GLOBAL| Coordinate file name                                      __STD_INPUT__
 GLOBAL| Method name                                                        CP2K
 GLOBAL| Project name                                                    PROJECT
 GLOBAL| Run type                                                         ENERGY
 GLOBAL| FFT library                                                       FFTW3
 GLOBAL| Diagonalization library                                            ELPA
 GLOBAL| Minimum number of eigenvectors for ELPA usage                        16
 GLOBAL| Orthonormality check for eigenvectors                          DISABLED
 GLOBAL| Matrix multiplication library                                 ScaLAPACK
 GLOBAL| All-to-all communication in single precision                          F
 GLOBAL| FFTs using library dependent lengths                                  F
 GLOBAL| Grid backend                                                       AUTO
 GLOBAL| Global print level                                               MEDIUM
 GLOBAL| MPI I/O enabled                                                       T
 GLOBAL| Total number of message passing processes                            40
 GLOBAL| Number of threads for this process                                    1
 GLOBAL| This output is from process                                           0
 GLOBAL| Stack size for threads created by OpenMP (OMP_STACKSIZE)        default
 GLOBAL| CPU model name                Intel(R) Xeon(R) CPU E5-2640 v4 @ 2.40GHz
 GLOBAL| CPUID                                                              1002
 GLOBAL| Compiled for CPUID                                                 1001

 *** HINT in environment.F:869 :: The compiler target flags (x86_avx) used ***
 *** to build this binary cannot exploit all extensions of this CPU model  ***
 *** (x86_avx2). Consider compiler target flags as part of FCFLAGS and     ***
 *** CFLAGS (ARCH file).                                                   ***


 MEMORY| system memory details [Kb]
 MEMORY|                        rank 0           min           max       average
 MEMORY| MemTotal            197799404     197799404     197799404     197799404
 MEMORY| MemFree             192325540     192325540     192491516     192408528
 MEMORY| Buffers                 19976         19280         19976         19628
 MEMORY| Cached                 365080        347748        365080        356414
 MEMORY| Slab                   128668        128668        131836        130252
 MEMORY| SReclaimable            47076         47076         47376         47226
 MEMORY| MemLikelyFree       192757672     192757672     192905920     192831796


 *** Fundamental physical constants (SI units) ***

 *** Literature: B. J. Mohr and B. N. Taylor,
 ***             CODATA recommended values of the fundamental physical
 ***             constants: 2006, Web Version 5.1
 ***             http://physics.nist.gov/constants

 Speed of light in vacuum [m/s]                             2.99792458000000E+08
 Magnetic constant or permeability of vacuum [N/A**2]       1.25663706143592E-06
 Electric constant or permittivity of vacuum [F/m]          8.85418781762039E-12
 Planck constant (h) [J*s]                                  6.62606896000000E-34
 Planck constant (h-bar) [J*s]                              1.05457162825177E-34
 Elementary charge [C]                                      1.60217648700000E-19
 Electron mass [kg]                                         9.10938215000000E-31
 Electron g factor [ ]                                     -2.00231930436220E+00
 Proton mass [kg]                                           1.67262163700000E-27
 Fine-structure constant                                    7.29735253760000E-03
 Rydberg constant [1/m]                                     1.09737315685270E+07
 Avogadro constant [1/mol]                                  6.02214179000000E+23
 Boltzmann constant [J/K]                                   1.38065040000000E-23
 Atomic mass unit [kg]                                      1.66053878200000E-27
 Bohr radius [m]                                            5.29177208590000E-11

 *** Conversion factors ***

 [u] -> [a.u.]                                              1.82288848426455E+03
 [Angstrom] -> [Bohr] = [a.u.]                              1.88972613288564E+00
 [a.u.] = [Bohr] -> [Angstrom]                              5.29177208590000E-01
 [a.u.] -> [s]                                              2.41888432650478E-17
 [a.u.] -> [fs]                                             2.41888432650478E-02
 [a.u.] -> [J]                                              4.35974393937059E-18
 [a.u.] -> [N]                                              8.23872205491840E-08
 [a.u.] -> [K]                                              3.15774647902944E+05
 [a.u.] -> [kJ/mol]                                         2.62549961709828E+03
 [a.u.] -> [kcal/mol]                                       6.27509468713739E+02
 [a.u.] -> [Pa]                                             2.94210107994716E+13
 [a.u.] -> [bar]                                            2.94210107994716E+08
 [a.u.] -> [atm]                                            2.90362800883016E+08
 [a.u.] -> [eV]                                             2.72113838565563E+01
 [a.u.] -> [Hz]                                             6.57968392072181E+15
 [a.u.] -> [1/cm] (wave numbers)                            2.19474631370540E+05
 [a.u./Bohr**2] -> [1/cm]                                   5.14048714338585E+03
 
 MIXED_ENV| Number of created MPI groups:                                      1
 MIXED_ENV| Task to group correspondence:
  (   0 :    0)  (   1 :    0)  (   2 :    0)  (   3 :    0)
  (   4 :    0)  (   5 :    0)  (   6 :    0)  (   7 :    0)
  (   8 :    0)  (   9 :    0)  (  10 :    0)  (  11 :    0)
  (  12 :    0)  (  13 :    0)  (  14 :    0)  (  15 :    0)
  (  16 :    0)  (  17 :    0)  (  18 :    0)  (  19 :    0)
  (  20 :    0)  (  21 :    0)  (  22 :    0)  (  23 :    0)
  (  24 :    0)  (  25 :    0)  (  26 :    0)  (  27 :    0)
  (  28 :    0)  (  29 :    0)  (  30 :    0)  (  31 :    0)
  (  32 :    0)  (  33 :    0)  (  34 :    0)  (  35 :    0)
  (  36 :    0)  (  37 :    0)  (  38 :    0)  (  39 :    0)

 CELL_TOP| Volume [angstrom^3]:                                      3844.865420
 CELL_TOP| Vector a [angstrom    12.994     0.000     0.000   |a| =    12.993800
 CELL_TOP| Vector b [angstrom     0.000    11.836     0.000   |b| =    11.836000
 CELL_TOP| Vector c [angstrom     0.000     0.000    25.000   |c| =    25.000000
 CELL_TOP| Angle (b,c), alpha [degree]:                                90.000000
 CELL_TOP| Angle (a,c), beta  [degree]:                                90.000000
 CELL_TOP| Angle (a,b), gamma [degree]:                                90.000000
 CELL_TOP| Numerically orthorhombic:                                         YES
 
 GENERATE|  Preliminary Number of Bonds generated:                             0
 GENERATE|  Achieved consistency in connectivity generation.

 CELL| Volume [angstrom^3]:                                          3844.865420
 CELL| Vector a [angstrom]:      12.994     0.000     0.000   |a| =    12.993800
 CELL| Vector b [angstrom]:       0.000    11.836     0.000   |b| =    11.836000
 CELL| Vector c [angstrom]:       0.000     0.000    25.000   |c| =    25.000000
 CELL| Angle (b,c), alpha [degree]:                                    90.000000
 CELL| Angle (a,c), beta  [degree]:                                    90.000000
 CELL| Angle (a,b), gamma [degree]:                                    90.000000
 CELL| Numerically orthorhombic:                                             YES

 CELL_REF| Volume [angstrom^3]:                                      3844.865420
 CELL_REF| Vector a [angstrom    12.994     0.000     0.000   |a| =    12.993800
 CELL_REF| Vector b [angstrom     0.000    11.836     0.000   |b| =    11.836000
 CELL_REF| Vector c [angstrom     0.000     0.000    25.000   |c| =    25.000000
 CELL_REF| Angle (b,c), alpha [degree]:                                90.000000
 CELL_REF| Angle (a,c), beta  [degree]:                                90.000000
 CELL_REF| Angle (a,b), gamma [degree]:                                90.000000
 CELL_REF| Numerically orthorhombic:                                         YES


 MOLECULE KIND INFORMATION


 All atoms are their own molecule, skipping detailed information
 
 MIXED_CDFT| Activating mixed CDFT calculation
 MIXED_CDFT| Number of CDFT states:                                            2
 MIXED_CDFT| CDFT states calculation mode: serial
 MIXED_CDFT| The constraints are separately built for all CDFT states
 MIXED_CDFT| Calculating electronic coupling between states:                   T
 MIXED_CDFT| Calculating electronic coupling reliability metric:               F
 MIXED_CDFT| Configuration interaction (CDFT-CI) was requested:                F
 MIXED_CDFT| Block diagonalizing the mixed CDFT Hamiltonian:                   F
 MIXED_CDFT| Matrix inversions calculated with LU decomposition.

  ------------------------- CDFT coupling information --------------------------
  Information at step (fs):                                                 0.00

  ############################################
  ###### CDFT states I =  1 and J =   2 ######
  ############################################
  Atomic group:                                                                1
  Strength of constraint I:                                      -0.049446697840
  Strength of constraint J:                                      -0.046497609672
  Final value of constraint I:                                    0.999482860476
  Final value of constraint J:                                    0.999969581692

  Overlap between states I and J:                                 0.151963879510
  Charge transfer energy (J-I) (Hartree):                         0.002224639496
 
  Diabatic electronic coupling (Lowdin, mHartree):                3.981962861417
  ------------------------------------------------------------------------------
 NO FORCE_EVAL section calculated the dipole

 ENERGY| Total FORCE_EVAL ( MIXED ) energy [a.u.]:         -5775.837125171760817

 -------------------------------------------------------------------------------
 -                                                                             -
 -                                DBCSR STATISTICS                             -
 -                                                                             -
 -------------------------------------------------------------------------------
 COUNTER                                    TOTAL       BLAS       SMM       ACC
 flops   832 x    65 x   192            996802560       0.0%    100.0%      0.0%
 flops   193 x    65 x    33           3085016220       0.0%    100.0%      0.0%
 flops   832 x    65 x   160           3322675200       0.0%    100.0%      0.0%
 flops    13 x     1 x    13           8471350784       0.0%    100.0%      0.0%
 flops   192 x    65 x    33           9207095040       0.0%    100.0%      0.0%
 flops    26 x     1 x    13           9755469568       0.0%    100.0%      0.0%
 flops    13 x     1 x    26           9755469568       0.0%    100.0%      0.0%
 flops    26 x     1 x    26           9812967424       0.0%    100.0%      0.0%
 flops   832 x    64 x   192          10796138496       0.0%    100.0%      0.0%
 flops   832 x    96 x   192          11777605632       0.0%    100.0%      0.0%
 flops   193 x    64 x    33          15187772160       0.0%    100.0%      0.0%
 flops   193 x    96 x    33          18225326592       0.0%    100.0%      0.0%
 flops   193 x    65 x    64          23932247040       0.0%    100.0%      0.0%
 flops   832 x    65 x    33          28996830720       0.0%    100.0%      0.0%
 flops   193 x    65 x   182          31234039200       0.0%    100.0%      0.0%
 flops   832 x    64 x   160          35987128320       0.0%    100.0%      0.0%
 flops   832 x    96 x   160          39258685440       0.0%    100.0%      0.0%
 flops   193 x    65 x    32          44872963200       0.0%    100.0%      0.0%
 flops   192 x    64 x    33          45327237120       0.0%    100.0%      0.0%
 flops   193 x    65 x   156          53544067200       0.0%    100.0%      0.0%
 flops   192 x    96 x    33          54392684544       0.0%    100.0%      0.0%
 flops   193 x    65 x   169          58006072800       0.0%    100.0%      0.0%
 flops   192 x    65 x    64          71424737280       0.0%    100.0%      0.0%
 flops    13 x    13 x    33          88429982784       0.0%    100.0%      0.0%
 flops   192 x    65 x   182          93216614400       0.0%    100.0%      0.0%
 flops    26 x    13 x    33         100921213536       0.0%    100.0%      0.0%
 flops    13 x    26 x    33         100921213536       0.0%    100.0%      0.0%
 flops    26 x    26 x    33         103102222080       0.0%    100.0%      0.0%
 flops   193 x    64 x    64         117820293120       0.0%    100.0%      0.0%
 flops   192 x    65 x    32         133921382400       0.0%    100.0%      0.0%
 flops   193 x    96 x    64         141384351744       0.0%    100.0%      0.0%
 flops   832 x    64 x    33         142753628160       0.0%    100.0%      0.0%
 flops   193 x    64 x   182         153767577600       0.0%    100.0%      0.0%
 flops   192 x    65 x   156         159799910400       0.0%    100.0%      0.0%
 flops   832 x    96 x    33         171304353792       0.0%    100.0%      0.0%
 flops   192 x    65 x   169         173116569600       0.0%    100.0%      0.0%
 flops   193 x    96 x   182         184521093120       0.0%    100.0%      0.0%
 flops   193 x    64 x    32         220913049600       0.0%    100.0%      0.0%
 flops   832 x    65 x    64         224945111040       0.0%    100.0%      0.0%
 flops   193 x    64 x   156         263601561600       0.0%    100.0%      0.0%
 flops   193 x    96 x    32         265095659520       0.0%    100.0%      0.0%
 flops   193 x    64 x   169         285568358400       0.0%    100.0%      0.0%
 flops   193 x    96 x   156         316321873920       0.0%    100.0%      0.0%
 flops   193 x    96 x   169         342682030080       0.0%    100.0%      0.0%
 flops   832 x    65 x   182         353387274240       0.0%    100.0%      0.0%
 flops   832 x    65 x    32         421772083200       0.0%    100.0%      0.0%
 flops   832 x    65 x   156         605806755840       0.0%    100.0%      0.0%
 flops   832 x    65 x   169         656290652160       0.0%    100.0%      0.0%
 flops   192 x    64 x    64         894305304576       0.0%    100.0%      0.0%
 flops   192 x    96 x    64         964631199744       0.0%    100.0%      0.0%
 flops   192 x    64 x   182        1193172664320       0.0%    100.0%      0.0%
 flops   192 x    96 x   182        1284955176960       0.0%    100.0%      0.0%
 flops    13 x    13 x    64        1372004581376       0.0%    100.0%      0.0%
 flops    26 x    13 x    64        1565807919104       0.0%    100.0%      0.0%
 flops    13 x    26 x    64        1565807919104       0.0%    100.0%      0.0%
 flops    26 x    26 x    64        1599646597120       0.0%    100.0%      0.0%
 flops   192 x    64 x    32        1744656924672       0.0%    100.0%      0.0%
 flops   192 x    96 x    32        1876517978112       0.0%    100.0%      0.0%
 flops   192 x    64 x   156        2045438853120       0.0%    100.0%      0.0%
 flops    13 x    13 x   192        2078383177728       0.0%    100.0%      0.0%
 flops   192 x    96 x   156        2202780303360       0.0%    100.0%      0.0%
 flops   192 x    64 x   169        2215892090880       0.0%    100.0%      0.0%
 flops    26 x    13 x   192        2371966451712       0.0%    100.0%      0.0%
 flops    13 x    26 x   192        2371966451712       0.0%    100.0%      0.0%
 flops   192 x    96 x   169        2386345328640       0.0%    100.0%      0.0%
 flops    26 x    26 x   192        2423227023360       0.0%    100.0%      0.0%
 flops   832 x    64 x    64        2465772601344       0.0%    100.0%      0.0%
 flops    13 x    13 x    32        2658258876416       0.0%    100.0%      0.0%
 flops   832 x    96 x    64        2687257018368       0.0%    100.0%      0.0%
 flops    26 x    13 x    32        3033752843264       0.0%    100.0%      0.0%
 flops    13 x    26 x    32        3033752843264       0.0%    100.0%      0.0%
 flops    26 x    26 x    32        3099315281920       0.0%    100.0%      0.0%
 flops   832 x    64 x   182        3827456016384       0.0%    100.0%      0.0%
 flops   832 x    96 x   182        4175406563328       0.0%    100.0%      0.0%
 flops   832 x    64 x    32        4793117442048       0.0%    100.0%      0.0%
 flops   832 x    96 x    32        5208400723968       0.0%    100.0%      0.0%
 flops   832 x    64 x   156        6561353170944       0.0%    100.0%      0.0%
 flops    13 x    13 x   160        6927943925760       0.0%    100.0%      0.0%
 flops   832 x    64 x   169        7108132601856       0.0%    100.0%      0.0%
 flops   832 x    96 x   156        7157839822848       0.0%    100.0%      0.0%
 flops   832 x    96 x   169        7754326474752       0.0%    100.0%      0.0%
 flops    26 x    13 x   160        7906554839040       0.0%    100.0%      0.0%
 flops    13 x    26 x   160        7906554839040       0.0%    100.0%      0.0%
 flops    26 x    26 x   160        8077423411200       0.0%    100.0%      0.0%
 flops    13 x    32 x    13       48469435875328       0.0%    100.0%      0.0%
 flops    26 x    32 x    13       55630576222208       0.0%    100.0%      0.0%
 flops    13 x    32 x    26       55630576222208       0.0%    100.0%      0.0%
 flops    26 x    32 x    26       56281554747392       0.0%    100.0%      0.0%
 flops inhomo. stacks                           0       0.0%      0.0%      0.0%
 flops total                       348.971004E+12       0.0%    100.0%      0.0%
 flops max/rank                      9.913755E+12       0.0%    100.0%      0.0%
 matmuls inhomo. stacks                         0       0.0%      0.0%      0.0%
 matmuls total                        12161415840       0.0%    100.0%      0.0%
 number of processed stacks              48594164       0.0%    100.0%      0.0%
 average stack size                                     0.0     250.3       0.0
 marketing flops                   501.708317E+12
 -------------------------------------------------------------------------------
 # multiplications                          27327
 max memory usage/rank             945.983488E+06
 # max total images/rank                        5
 # max 3D layers                                1
 # MPI messages exchanged                36071640
 MPI messages size (bytes):
  total size                        11.277612E+12
  min size                           0.000000E+00
  max size                           1.277952E+06
  average size                     312.644844E+03
 MPI breakdown and total messages size (bytes):
             size <=      128              484704                        0
       128 < size <=     8192              121176                600709824
      8192 < size <=    32768             6440580             137353474296
     32768 < size <=   131072            12041772             935346601968
    131072 < size <=  4194304            16983408           10203412672512
   4194304 < size <= 16777216                   0                        0
  16777216 < size                               0                        0
 -------------------------------------------------------------------------------

 *** WARNING in dbcsr_mm.F:290 :: Using a non-square number of MPI ranks ***
 *** might lead to poor performance. Used ranks: 40 Suggested: 36 81     ***

 -------------------------------------------------------------------------------
 -                                                                             -
 -                      DBCSR MESSAGE PASSING PERFORMANCE                      -
 -                                                                             -
 -------------------------------------------------------------------------------
 ROUTINE             CALLS      AVE VOLUME [Bytes]
 MP_Bcast               89                     12.
 MP_Allreduce       139856                    181.
 MP_Alltoall        175021                 548091.
 MP_ISend          2042444                 149345.
 MP_IRecv          2033524                 148071.
 -------------------------------------------------------------------------------

 -------------------------------------------------------------------------------
 -                                                                             -
 -                                DBM STATISTICS                               -
 -                                                                             -
 -------------------------------------------------------------------------------
    M  x    N  x    K                                          COUNT     PERCENT
 -------------------------------------------------------------------------------

 -------------------------------------------------------------------------------
 -                                                                             -
 -                                GRID STATISTICS                              -
 -                                                                             -
 -------------------------------------------------------------------------------
 LP    KERNEL             BACKEND                              COUNT     PERCENT
 5     collocate ortho    REF                              278692128      33.96%
 5     integrate ortho    REF                              140976576      17.18%
 6     collocate ortho    REF                              133604416      16.28%
 4     collocate ortho    REF                              132608960      16.16%
 6     integrate ortho    REF                               67583872       8.23%
 4     integrate ortho    REF                               67080320       8.17%
 0     collocate general  REF                                 154880       0.02%
 0     integrate general  REF                                  30720       0.00%
 -------------------------------------------------------------------------------

 MEMORY| Estimated peak process memory [MiB]                                 900

 -------------------------------------------------------------------------------
 -                                                                             -
 -                         MESSAGE PASSING PERFORMANCE                         -
 -                                                                             -
 -------------------------------------------------------------------------------

 ROUTINE             CALLS      AVE VOLUME [Bytes]
 MP_Group               10
 MP_Bcast             4586                 134130.
 MP_Allreduce        15374                    196.
 MP_Sync               213
 MP_Alltoall         22893                7964604.
 MP_SendRecv         26720                 589824.
 MP_ISendRecv       391482                  28416.
 MP_Wait            726775
 MP_comm_split          81
 MP_ISend           308497                 227638.
 MP_IRecv           308497                 227969.
 MP_Recv              2961                 851968.
 MP_Write_All            4                 215808.
 -------------------------------------------------------------------------------


 -------------------------------------------------------------------------------
 -                                                                             -
 -                           R E F E R E N C E S                               -
 -                                                                             -
 -------------------------------------------------------------------------------
 
 CP2K version 2022.1, the CP2K developers group (2022).
 CP2K is freely available from https://www.cp2k.org/ .

 Kuehne,Thomas D.; Iannuzzi,Marcella; Del Ben,Mauro;
 Rybkin,Vladimir V.; Seewald,Patrick; Stein,Frederick; Laino,Teodoro;
 Khaliullin,Rustam Z.; Schuett,Ole; Schiffmann,Florian; Golze,Dorothea;
 Wilhelm,Jan; Chulkov,Sergey; Bani-Hashemian,Mohammad Hossein;
 Weber,Valery; Borstnik,Urban; Taillefumier,Mathieu;
 Jakobovits,Alice Shoshana; Lazzaro,Alfio; Pabst,Hans; Mueller,Tiziano;
 Schade,Robert; Guidon,Manuel; Andermatt,Samuel; Holmberg,Nico;
 Schenter,Gregory K.; Hehn,Anna; Bussy,Augustin; Belleflamme,Fabian;
 Tabacchi,Gloria; Gloess,Andreas; Lass,Michael; Bethune,Iain;
 Mundy,Christopher J.; Plessl,Christian; Watkins,Matt;
 VandeVondele,Joost; Krack,Matthias; Hutter,Juerg. 
 The Journal of Chemical Physics, 152 (19), (2020). 
 CP2K: An electronic structure and molecular dynamics software package -
 Quickstep: Efficient and accurate electronic structure calculations.
 https://doi.org/10.1063/5.0007045

 Holmberg, Nico; Laasonen, Kari. 
 The Journal of Chemical Physics, 149 (10), 104702 (2018). 
 Diabatic model for electrochemical hydrogen evolution based on
 constrained DFT
 configuration interaction.
 https://doi.org/10.1063/1.5038959

 Holmberg, N; Laasonen, K. 
 Journal of Chemical Theory and Computation, 13 (2), (2017). 
 Efficient Constrained Density Functional Theory Implementation for
 Simulation of Condensed Phase Electron Transfer Reactions.
 https://doi.org/10.1021/acs.jctc.6b01085

 Goerigk, Lars; Hansen, Andreas; Bauer, Christoph; Ehrlich, Stephan;
 Najibi, Asim; Grimme, Stefan. , 19 (48), (2017). 
 A look at the density functional theory zoo with the advanced GMTKN55 database
 for general main group thermochemistry, kinetics and noncovalent interactions.
 https://doi.org/10.1039/C7CP04913G

 Schuett, Ole; Messmer, Peter; Hutter, Juerg; VandeVondele, Joost. 
 Electronic Structure Calculations on Graphics Processing Units, John
 Wiley & Sons, Ltd, 173-190 (2016). 
 GPU-Accelerated Sparse Matrix-Matrix Multiplication for
 Linear Scaling Density Functional Theory.
 https://doi.org/10.1002/9781118670712.ch8

 Heinecke, A; Henry, G; Hutchinson, M; Pabst, H. 
 Proceedings of Intl. Supercomputing Conference, 981-991 (2016). 
 LIBXSMM: Accelerating Small Matrix Multiplications
 by Runtime Code Generation.
 https://doi.org/10.1109/SC.2016.83

 Borstnik, U; VandeVondele, J; Weber, V; Hutter, J. 
 PARALLEL COMPUTING, 40 (5-6), 47-58 (2014). 
 Sparse matrix multiplication: The distributed block-compressed sparse
 row library.
 https://doi.org/10.1016/j.parco.2014.03.012

 Hutter, J; Iannuzzi, M; Schiffmann, F; VandeVondele, J. 
 WIREs Comput Mol Sci., 4 (1), 15-25 (2014). 
 CP2K: atomistic simulations of condensed matter systems.
 https://doi.org/10.1002/wcms.1159

 Marek, A; Blum, V; Johanni, R; Havu, V; Lang, B; Auckenthaler, T;
 Heinecke, A; Bungartz, H; Lederer, H. 
 Journal of Physics: Condensed Matter, 26 (21), (2014). 
 The ELPA library: scalable parallel eigenvalue solutions for
 electronic structure
 theory and computational science.
 https://doi.org/10.1088/0953-8984/26/21/213201

 Grimme, S; Ehrlich, S; Goerigk, L. 
 JOURNAL OF COMPUTATIONAL CHEMISTRY, 32, 1456 (2011). 
 Effect of the damping function in dispersion corrected density functional theory.
 https://doi.org/10.1002/jcc.21759

 Grimme, S; Antony, J; Ehrlich, S; Krieg, H. 
 JOURNAL OF CHEMICAL PHYSICS, 132 (15), 154104 (2010). 
 A consistent and accurate ab initio parametrization of density
 functional dispersion correction (DFT-D) for the 94 elements H-Pu.
 https://doi.org/10.1063/1.3382344

 Weber, V; VandeVondele, J; Hutter, J; Niklasson, AMN. 
 JOURNAL OF CHEMICAL PHYSICS, 128 (8), 084113 (2008). 
 Direct energy functional minimization under orthogonality constraints.
 https://doi.org/10.1063/1.2841077

 VandeVondele, J; Hutter, J. 
 JOURNAL OF CHEMICAL PHYSICS, 127 (11), 114105 (2007). 
 Gaussian basis sets for accurate calculations on molecular systems in
 gas and condensed phases.
 https://doi.org/10.1063/1.2770708

 Krack, M. 
 THEORETICAL CHEMISTRY ACCOUNTS, 114 (1-3), 145-152 (2005). 
 Pseudopotentials for H to Kr optimized for gradient-corrected
 exchange-correlation functionals.
 https://doi.org/10.1007/s00214-005-0655-y

 VandeVondele, J; Krack, M; Mohamed, F; Parrinello, M; Chassaing, T;
 Hutter, J. COMPUTER PHYSICS COMMUNICATIONS, 167 (2), 103-128 (2005). 
 QUICKSTEP: Fast and accurate density functional calculations using a
 mixed Gaussian and plane waves approach.
 https://doi.org/10.1016/j.cpc.2004.12.014

 Frigo, M; Johnson, SG. 
 PROCEEDINGS OF THE IEEE, 93 (2), 216-231 (2005). 
 The design and implementation of FFTW3.
 https://doi.org/10.1109/JPROC.2004.840301

 VandeVondele, J; Hutter, J. 
 JOURNAL OF CHEMICAL PHYSICS, 118 (10), 4365-4369 (2003). 
 An efficient orbital transformation method for electronic structure
 calculations.
 https://doi.org/10.1063/1.1543154

 Hartwigsen, C; Goedecker, S; Hutter, J. 
 PHYSICAL REVIEW B, 58 (7), 3641-3662 (1998). 
 Relativistic separable dual-space Gaussian pseudopotentials from H to Rn.
 https://doi.org/10.1103/PhysRevB.58.3641

 Dudarev, SL; Botton, GA; Savrasov, SY; Humphreys, CJ; Sutton, AP. 
 PHYSICAL REVIEW B, 57 (3), 1505-1509 (1998). 
 Electron-energy-loss spectra and the structural stability of
 nickel oxide: An LSDA+U study.
 https://doi.org/10.1103/PhysRevB.57.1505

 Lippert, G; Hutter, J; Parrinello, M. 
 MOLECULAR PHYSICS, 92 (3), 477-487 (1997). 
 A hybrid Gaussian and plane wave density functional scheme.
 https://doi.org/10.1080/002689797170220

 Dudarev, SL; Manh, DN; Sutton, AP. 
 PHILOSOPHICAL MAGAZINE B, 75 (5), 613-628 (1997). 
 Effect of Mott-Hubbard correlations on the electronic
 structure and structural stability of uranium dioxide.
 https://doi.org/10.1080/13642819708202343

 Perdew, JP; Burke, K; Ernzerhof, M. 
 PHYSICAL REVIEW LETTERS, 77 (18), 3865-3868 (1996). 
 Generalized gradient approximation made simple.
 https://doi.org/10.1103/PhysRevLett.77.3865

 Goedecker, S; Teter, M; Hutter, J. 
 PHYSICAL REVIEW B, 54 (3), 1703-1710 (1996). 
 Separable dual-space Gaussian pseudopotentials.
 https://doi.org/10.1103/PhysRevB.54.1703


 -------------------------------------------------------------------------------
 -                                                                             -
 -                                T I M I N G                                  -
 -                                                                             -
 -------------------------------------------------------------------------------
 SUBROUTINE                       CALLS  ASD         SELF TIME        TOTAL TIME
                                MAXIMUM       AVERAGE  MAXIMUM  AVERAGE  MAXIMUM
 CP2K                                 1  1.0    0.077    0.087 6252.455 6252.470
 qs_energies                          2  2.0    0.004    0.005 6250.719 6250.734
 cdft_scf_loop                        2  3.0    0.001    0.001 6236.388 6236.403
 scf_env_do_scf                      13  4.0    0.004    0.007 6234.084 6234.101
 scf_env_do_scf_inner_loop         1109  5.0    0.027    0.063 6061.597 6068.871
 qs_ks_update_qs_env               1129  6.0    0.011    0.013 2920.735 2923.195
 rebuild_ks_matrix                 1109  7.0    0.006    0.008 2917.660 2920.136
 qs_ks_build_kohn_sham_matrix      1109  8.0    0.193    0.236 2917.654 2920.130
 qs_rho_update_rho_low             1111  6.0    0.009    0.011 2712.614 2713.801
 calculate_rho_elec                2222  7.0    3.811    4.235 2712.605 2713.790
 grid_collocate_task_list          2222  8.0 2123.011 2220.475 2123.011 2220.475
 sum_up_and_integrate               561  9.0   13.706   15.447 1303.377 1303.731
 integrate_v_rspace                1124 10.0    0.048    0.062 1291.962 1295.512
 dbcsr_multiply_generic           27327 11.2    1.848    2.094 1019.450 1049.194
 grid_integrate_task_list          1124 11.0  991.056 1040.505  991.056 1040.505
 plus_u                            1109  9.0    0.045    0.070 1037.366 1037.754
 lowdin                            1109 10.0    0.289    0.453 1037.320 1037.696
 multiply_cannon                  27327 12.2    3.188    4.307  782.054  832.007
 multiply_cannon_loop             27327 13.2    6.017    6.372  723.744  770.305
 density_rs2pw                     2222  8.0    0.170    0.195  543.297  627.937
 multiply_cannon_multrec         546540 14.2  513.500  577.380  513.834  577.616
 qs_scf_new_mos                    1109  6.0    0.008    0.012  513.885  516.887
 qs_scf_loop_do_ot                 1109  7.0    0.018    0.027  513.877  516.877
 cp_dbcsr_sm_fm_multiply           3432 10.9    0.129    0.147  492.383  495.752
 rs_pw_transfer                   16744 10.0    0.172    0.204  373.903  455.205
 ot_scf_mini                       1109  8.0    0.067    0.095  441.531  443.093
 pw_transfer                      21733  9.9    1.570    1.900  427.337  431.923
 fft_wrap_pw1pw2                  19515 10.9    0.170    0.198  414.239  420.790
 qs_vxc_create                     1109  9.0    0.030    0.044  402.838  403.164
 fft_wrap_pw1pw2_250               6131 11.5   45.646   49.115  386.006  395.450
 cp_gemm                           2430 10.8    0.009    0.011  371.661  373.536
 cp_gemm_fm_gemm                   2430 11.8    0.011    0.015  371.652  373.525
 cp_fm_gemm                        2430 12.8  371.641  373.511  371.641  373.511
 cp_dbcsr_sm_fm_multiply_core      3432 11.9    0.052    0.090  335.230  352.716
 fft3d_ps                         19515 12.9  184.991  194.391  298.000  310.836
 pw_nn_compose_r                  13360 12.9  188.251  199.635  236.037  284.700
 xc_vxc_pw_create                   561 10.0   32.420   40.342  277.173  277.338
 mp_waitall_1                   2385871 14.7  193.438  268.177  193.438  268.177
 xc_rho_set_and_dset_create        1109 11.0   24.685   29.372  256.493  266.434
 qs_ot_get_orbitals_ref            2218  9.0    0.036    0.051  258.920  260.140
 mp_waitany                      308448 12.0  162.217  247.329  162.217  247.329
 rs_pw_transfer_RS2PW_250          2232 10.0   48.720   68.662  166.218  245.352
 potential_pw2rs                   1124 11.0    0.181    0.192  230.973  235.102
 xc_pw_derive                     10020 12.0    0.051    0.071  172.179  217.851
 multiply_cannon_metrocomm3      546540 14.2    1.486    1.622  131.833  209.319
 ot_mini                           1109  9.0    0.009    0.011  181.661  184.440
 mp_alltoall_d11v                 59155 13.7  143.102  183.592  143.102  183.592
 init_scf_loop                       20  5.0    0.003    0.005  167.602  167.776
 make_m2s                         54654 12.2    1.815    1.986  156.173  159.874
 cp_dbcsr_plus_fm_fm_t_native      1126 11.0    0.049    0.063  156.006  159.431
 dbcsr_complete_redistribute      13676 12.6   52.736   61.825  137.380  145.651
 ot_new_cg_direction                561 10.0    0.013    0.015  141.508  141.523
 make_images                      54654 13.2    4.172    4.318  137.722  140.536
 apply_preconditioner_dbcsr        1122 11.0    0.007    0.011  136.952  139.103
 apply_all                         1122 12.0    0.160    0.191  136.945  139.099
 copy_dbcsr_to_fm                  4924 11.6    0.167    0.203  114.794  127.715
 xc_exc_calc                        548 10.0    0.915    0.969  125.635  125.791
 -------------------------------------------------------------------------------

 The number of warnings for this run is : 123
 
 -------------------------------------------------------------------------------
  **** **** ******  **  PROGRAM ENDED AT                 2023-05-20 12:03:20.840
 ***** ** ***  *** **   PROGRAM RAN ON                                   node164
 **    ****   ******    PROGRAM RAN BY                                      wyin
 ***** **    ** ** **   PROGRAM PROCESS ID                                  8079
  **** **  *******  **  PROGRAM STOPPED IN /home/wyin/bozai/job/1-TiO2/2-slab-11
                                           0/1-pure/3-Marcus/3-Hab/3-40-44
