 *******************************************************************************
 *                            RESTART INFORMATION                              *
 *******************************************************************************
 *                                                                             *
 *    RESTART FILE NAME: PROJECT-1.restart                                     *
 *                                                                             *
 * RESTARTED QUANTITIES:                                                       *
 *                       CELL                                                  *
 *                       COORDINATES                                           *
 *                       RANDOM NUMBER GENERATOR                               *
 *                       VELOCITIES                                            *
 *                       GEO_OPT COUNTERS                                      *
 *                       CELL_OPT COUNTERS                                     *
 *                       PARTICLE THERMOSTAT                                   *
 *                       REAL TIME PROPAGATION                                 *
 *                       PINT BEAD POSITIONS                                   *
 *                       PINT BEAD VELOCITIES                                  *
 *                       PINT NOSE THERMOSTAT                                  *
 *                       PINT GLE THERMOSTAT                                   *
 *                       HELIUM BEAD POSITIONS                                 *
 *                       HELIUM PERMUTATION STATE                              *
 *                       HELIUM FORCES ON SOLUTE                               *
 *                       HELIUM RNG STATE                                      *
 *******************************************************************************

 DBCSR| CPU Multiplication driver                                           XSMM
 DBCSR| Multrec recursion limit                                              512
 DBCSR| Multiplication stack size                                           1000
 DBCSR| Maximum elements for images                                    UNLIMITED
 DBCSR| Multiplicative factor virtual images                                   1
 DBCSR| Use multiplication densification                                       T
 DBCSR| Multiplication size stacks                                             3
 DBCSR| Use memory pool for CPU allocation                                     F
 DBCSR| Number of 3D layers                                               SINGLE
 DBCSR| Use MPI memory allocation                                              F
 DBCSR| Use RMA algorithm                                                      F
 DBCSR| Use Communication thread                                               T
 DBCSR| Communication thread load                                             87
 DBCSR| MPI: My node id                                                        0
 DBCSR| MPI: Number of nodes                                                  40
 DBCSR| OMP: Current number of threads                                         1
 DBCSR| OMP: Max number of threads                                             1
 DBCSR| Split modifier for TAS multiplication algorithm                  1.0E+00


  **** **** ******  **  PROGRAM STARTED AT               2023-05-15 08:41:39.547
 ***** ** ***  *** **   PROGRAM STARTED ON                               node167
 **    ****   ******    PROGRAM STARTED BY                                  wyin
 ***** **    ** ** **   PROGRAM PROCESS ID                                 11133
  **** **  *******  **  PROGRAM STARTED IN /home/wyin/bozai/job/1-TiO2/2-slab-11
                                           0/2-slab+H2O/1-1H2O/4-Marcus/1-1H2O/1
                                           floor/1-18

 CP2K| version string:                                       CP2K version 2022.1
 CP2K| source code revision number:                                  git:2caeb6f
 CP2K| cp2kflags: omp libint fftw3 libxc elpa parallel mpi3 scalapack xsmm plume
 CP2K|            d2 spglib mkl libvori libbqb
 CP2K| is freely available from                            https://www.cp2k.org/
 CP2K| Program compiled at                          Mon Mar 13 16:18:57 CET 2023
 CP2K| Program compiled on                                               login02
 CP2K| Program compiled for                                                local
 CP2K| Data directory path                   /home/wyin/package/cp2k-2022.1/data
 CP2K| Input file name                                                 input.inp
 
 GLOBAL| Force Environment number                                              1
 GLOBAL| Basis set file name            /home/wyin/bozai/Bootstrap/BASIS_SET/BAS
 GLOBAL| Potential file name            /home/wyin/bozai/Bootstrap/BASIS_SET/GTH
 GLOBAL| MM Potential file name                                     MM_POTENTIAL
 GLOBAL| Coordinate file name                   slab-110-delocalization+1H2O.xyz
 GLOBAL| Method name                                                        CP2K
 GLOBAL| Project name                                                    PROJECT
 GLOBAL| Run type                                                        GEO_OPT
 GLOBAL| FFT library                                                       FFTW3
 GLOBAL| Diagonalization library                                            ELPA
 GLOBAL| Minimum number of eigenvectors for ELPA usage                        16
 GLOBAL| Orthonormality check for eigenvectors                          DISABLED
 GLOBAL| Matrix multiplication library                                 ScaLAPACK
 GLOBAL| All-to-all communication in single precision                          F
 GLOBAL| FFTs using library dependent lengths                                  F
 GLOBAL| Grid backend                                                       AUTO
 GLOBAL| Global print level                                               MEDIUM
 GLOBAL| MPI I/O enabled                                                       T
 GLOBAL| Total number of message passing processes                            40
 GLOBAL| Number of threads for this process                                    1
 GLOBAL| This output is from process                                           0
 GLOBAL| Stack size for threads created by OpenMP (OMP_STACKSIZE)        default
 GLOBAL| CPU model name                Intel(R) Xeon(R) CPU E5-2640 v4 @ 2.40GHz
 GLOBAL| CPUID                                                              1002
 GLOBAL| Compiled for CPUID                                                 1001

 *** HINT in environment.F:869 :: The compiler target flags (x86_avx) used ***
 *** to build this binary cannot exploit all extensions of this CPU model  ***
 *** (x86_avx2). Consider compiler target flags as part of FCFLAGS and     ***
 *** CFLAGS (ARCH file).                                                   ***


 MEMORY| system memory details [Kb]
 MEMORY|                        rank 0           min           max       average
 MEMORY| MemTotal            197799176     197799132     197799176     197799154
 MEMORY| MemFree             191591268     191591268     192551412     192071340
 MEMORY| Buffers                 10520          9336         10520          9928
 MEMORY| Cached                 305504        299268        305504        302386
 MEMORY| Slab                   151576        151568        151576        151572
 MEMORY| SReclaimable            42100         41440         42100         41770
 MEMORY| MemLikelyFree       191949392     191949392     192901456     192425424


 *** Fundamental physical constants (SI units) ***

 *** Literature: B. J. Mohr and B. N. Taylor,
 ***             CODATA recommended values of the fundamental physical
 ***             constants: 2006, Web Version 5.1
 ***             http://physics.nist.gov/constants

 Speed of light in vacuum [m/s]                             2.99792458000000E+08
 Magnetic constant or permeability of vacuum [N/A**2]       1.25663706143592E-06
 Electric constant or permittivity of vacuum [F/m]          8.85418781762039E-12
 Planck constant (h) [J*s]                                  6.62606896000000E-34
 Planck constant (h-bar) [J*s]                              1.05457162825177E-34
 Elementary charge [C]                                      1.60217648700000E-19
 Electron mass [kg]                                         9.10938215000000E-31
 Electron g factor [ ]                                     -2.00231930436220E+00
 Proton mass [kg]                                           1.67262163700000E-27
 Fine-structure constant                                    7.29735253760000E-03
 Rydberg constant [1/m]                                     1.09737315685270E+07
 Avogadro constant [1/mol]                                  6.02214179000000E+23
 Boltzmann constant [J/K]                                   1.38065040000000E-23
 Atomic mass unit [kg]                                      1.66053878200000E-27
 Bohr radius [m]                                            5.29177208590000E-11

 *** Conversion factors ***

 [u] -> [a.u.]                                              1.82288848426455E+03
 [Angstrom] -> [Bohr] = [a.u.]                              1.88972613288564E+00
 [a.u.] = [Bohr] -> [Angstrom]                              5.29177208590000E-01
 [a.u.] -> [s]                                              2.41888432650478E-17
 [a.u.] -> [fs]                                             2.41888432650478E-02
 [a.u.] -> [J]                                              4.35974393937059E-18
 [a.u.] -> [N]                                              8.23872205491840E-08
 [a.u.] -> [K]                                              3.15774647902944E+05
 [a.u.] -> [kJ/mol]                                         2.62549961709828E+03
 [a.u.] -> [kcal/mol]                                       6.27509468713739E+02
 [a.u.] -> [Pa]                                             2.94210107994716E+13
 [a.u.] -> [bar]                                            2.94210107994716E+08
 [a.u.] -> [atm]                                            2.90362800883016E+08
 [a.u.] -> [eV]                                             2.72113838565563E+01
 [a.u.] -> [Hz]                                             6.57968392072181E+15
 [a.u.] -> [1/cm] (wave numbers)                            2.19474631370540E+05
 [a.u./Bohr**2] -> [1/cm]                                   5.14048714338585E+03
 

 CELL_TOP| Volume [angstrom^3]:                                      3844.865420
 CELL_TOP| Vector a [angstrom    12.994     0.000     0.000   |a| =    12.993800
 CELL_TOP| Vector b [angstrom     0.000    11.836     0.000   |b| =    11.836000
 CELL_TOP| Vector c [angstrom     0.000     0.000    25.000   |c| =    25.000000
 CELL_TOP| Angle (b,c), alpha [degree]:                                90.000000
 CELL_TOP| Angle (a,c), beta  [degree]:                                90.000000
 CELL_TOP| Angle (a,b), gamma [degree]:                                90.000000
 CELL_TOP| Numerically orthorhombic:                                         YES

 *** WARNING in atoms_input.F:123 :: Overwriting coordinates. Active    ***
 *** coordinates read from &COORD section. Active coordinates READ from ***
 *** &COORD section                                                     ***

 
 GENERATE|  Preliminary Number of Bonds generated:                             0
 GENERATE|  Achieved consistency in connectivity generation.

 CELL| Volume [angstrom^3]:                                          3844.865420
 CELL| Vector a [angstrom]:      12.994     0.000     0.000   |a| =    12.993800
 CELL| Vector b [angstrom]:       0.000    11.836     0.000   |b| =    11.836000
 CELL| Vector c [angstrom]:       0.000     0.000    25.000   |c| =    25.000000
 CELL| Angle (b,c), alpha [degree]:                                    90.000000
 CELL| Angle (a,c), beta  [degree]:                                    90.000000
 CELL| Angle (a,b), gamma [degree]:                                    90.000000
 CELL| Numerically orthorhombic:                                             YES

 CELL_REF| Volume [angstrom^3]:                                      3844.865420
 CELL_REF| Vector a [angstrom    12.994     0.000     0.000   |a| =    12.993800
 CELL_REF| Vector b [angstrom     0.000    11.836     0.000   |b| =    11.836000
 CELL_REF| Vector c [angstrom     0.000     0.000    25.000   |c| =    25.000000
 CELL_REF| Angle (b,c), alpha [degree]:                                90.000000
 CELL_REF| Angle (a,c), beta  [degree]:                                90.000000
 CELL_REF| Angle (a,b), gamma [degree]:                                90.000000
 CELL_REF| Numerically orthorhombic:                                         YES

 *******************************************************************************
 *******************************************************************************
 **                                                                           **
 **     #####                         ##              ##                      **
 **    ##   ##            ##          ##              ##                      **
 **   ##     ##                       ##            ######                    **
 **   ##     ##  ##   ##  ##   #####  ##  ##   ####   ##    #####    #####    **
 **   ##     ##  ##   ##  ##  ##      ## ##   ##      ##   ##   ##  ##   ##   **
 **   ##  ## ##  ##   ##  ##  ##      ####     ###    ##   ######   ######    **
 **    ##  ###   ##   ##  ##  ##      ## ##      ##   ##   ##       ##        **
 **     #######   #####   ##   #####  ##  ##  ####    ##    #####   ##        **
 **           ##                                                    ##        **
 **                                                                           **
 **                                                ... make the atoms dance   **
 **                                                                           **
 **            Copyright (C) by CP2K developers group (2000-2022)             **
 **                      J. Chem. Phys. 152, 194103 (2020)                    **
 **                                                                           **
 *******************************************************************************

 DFT| Spin unrestricted (spin-polarized) Kohn-Sham calculation               UKS
 DFT| Multiplicity                                                             2
 DFT| Number of spin states                                                    2
 DFT| Charge                                                                  -1
 DFT| Self-interaction correction (SIC)                                       NO
 DFT| Cutoffs: density                                              1.000000E-10
 DFT|          gradient                                             1.000000E-10
 DFT|          tau                                                  1.000000E-10
 DFT|          cutoff_smoothing_range                               0.000000E+00
 DFT| XC density smoothing                                                  NN10
 DFT| XC derivatives                                              SPLINE2_SMOOTH

 DFT+U| Method                                                            LOWDIN
 DFT+U| Check atomic kind information for details

 FUNCTIONAL| PBE:
 FUNCTIONAL| J.P.Perdew, K.Burke, M.Ernzerhof, Phys. Rev. Letter, vol. 77, n 18,
 FUNCTIONAL|  pp. 3865-3868, (1996){spin polarized}                             

 vdW POTENTIAL|                                                   Pair Potential
 vdW POTENTIAL|          DFT-D3 (Version 3.1)
 vdW POTENTIAL|          Potential Form: S. Grimme et al, JCP 132: 154104 (2010)
 vdW POTENTIAL|          Zero Damping
 vdW POTENTIAL|          Cutoff Radius [Bohr]:                             20.00
 vdW POTENTIAL|          s6 Scaling Factor:                               1.0000
 vdW POTENTIAL|          sr6 Scaling Factor:                              1.2170
 vdW POTENTIAL|          s8 Scaling Factor:                               0.7220
 vdW POTENTIAL|          Cutoff for CN calculation:                   0.1000E-05

 QS| Method:                                                                 GPW
 QS| Density plane wave grid type                        NON-SPHERICAL FULLSPACE
 QS| Number of grid levels:                                                    5
 QS| Density cutoff [a.u.]:                                                250.0
 QS| Using commensurate multigrids
 QS| Multi grid cutoff [a.u.]: 1) grid level                               250.0
 QS|                           2) grid level                                62.5
 QS|                           3) grid level                                15.6
 QS|                           4) grid level                                 3.9
 QS|                           5) grid level                                 1.0
 QS| Grid level progression factor:                                          4.0
 QS| Relative density cutoff [a.u.]:                                        20.0
 QS| Interaction thresholds: eps_pgf_orb:                                1.0E-06
 QS|                         eps_filter_matrix:                          0.0E+00
 QS|                         eps_core_charge:                            1.0E-14
 QS|                         eps_rho_gspace:                             1.0E-12
 QS|                         eps_rho_rspace:                             1.0E-12
 QS|                         eps_gvg_rspace:                             1.0E-06
 QS|                         eps_ppl:                                    1.0E-02
 QS|                         eps_ppnl:                                   1.0E-08


 ATOMIC KIND INFORMATION

  1. Atomic kind: Ti                                    Number of atoms:      64

     Orbital Basis Set                                        DZVP-MOLOPT-SR-GTH

       Number of orbital shell sets:                                           1
       Number of orbital shells:                                               8
       Number of primitive Cartesian functions:                                6
       Number of Cartesian basis functions:                                   31
       Number of spherical basis functions:                                   26
       Norm type:                                                              2

       Normalised Cartesian orbitals:

                        Set   Shell   Orbital            Exponent    Coefficient

                          1       1    2s                7.884570       0.015554
                                                         3.894698       0.963603
                                                         1.513589      -0.631435
                                                         0.596768      -0.343022
                                                         0.222222      -0.006534
                                                         0.077078       0.007652

                          1       2    3s                7.884570      -0.009340
                                                         3.894698       0.212624
                                                         1.513589      -0.258368
                                                         0.596768      -0.226206
                                                         0.222222       0.039438
                                                         0.077078       0.107179

                          1       3    4s                7.884570       0.276563
                                                         3.894698       0.105452
                                                         1.513589       0.085149
                                                         0.596768       0.882541
                                                         0.222222      -0.696223
                                                         0.077078       0.156638

                          1       4    3px               7.884570      -2.034794
                                                         3.894698       0.782008
                                                         1.513589       1.253903
                                                         0.596768       0.347823
                                                         0.222222       0.016778
                                                         0.077078      -0.000433
                          1       4    3py               7.884570      -2.034794
                                                         3.894698       0.782008
                                                         1.513589       1.253903
                                                         0.596768       0.347823
                                                         0.222222       0.016778
                                                         0.077078      -0.000433
                          1       4    3pz               7.884570      -2.034794
                                                         3.894698       0.782008
                                                         1.513589       1.253903
                                                         0.596768       0.347823
                                                         0.222222       0.016778
                                                         0.077078      -0.000433

                          1       5    4px               7.884570       0.376572
                                                         3.894698      -0.182875
                                                         1.513589      -0.474776
                                                         0.596768      -0.081757
                                                         0.222222       0.064432
                                                         0.077078       0.047279
                          1       5    4py               7.884570       0.376572
                                                         3.894698      -0.182875
                                                         1.513589      -0.474776
                                                         0.596768      -0.081757
                                                         0.222222       0.064432
                                                         0.077078       0.047279
                          1       5    4pz               7.884570       0.376572
                                                         3.894698      -0.182875
                                                         1.513589      -0.474776
                                                         0.596768      -0.081757
                                                         0.222222       0.064432
                                                         0.077078       0.047279

                          1       6    4dx2              7.884570       3.047350
                                                         3.894698       3.289529
                                                         1.513589       1.060616
                                                         0.596768       0.249930
                                                         0.222222       0.038806
                                                         0.077078       0.002319
                          1       6    4dxy              7.884570       5.278165
                                                         3.894698       5.697631
                                                         1.513589       1.837041
                                                         0.596768       0.432892
                                                         0.222222       0.067214
                                                         0.077078       0.004017
                          1       6    4dxz              7.884570       5.278165
                                                         3.894698       5.697631
                                                         1.513589       1.837041
                                                         0.596768       0.432892
                                                         0.222222       0.067214
                                                         0.077078       0.004017
                          1       6    4dy2              7.884570       3.047350
                                                         3.894698       3.289529
                                                         1.513589       1.060616
                                                         0.596768       0.249930
                                                         0.222222       0.038806
                                                         0.077078       0.002319
                          1       6    4dyz              7.884570       5.278165
                                                         3.894698       5.697631
                                                         1.513589       1.837041
                                                         0.596768       0.432892
                                                         0.222222       0.067214
                                                         0.077078       0.004017
                          1       6    4dz2              7.884570       3.047350
                                                         3.894698       3.289529
                                                         1.513589       1.060616
                                                         0.596768       0.249930
                                                         0.222222       0.038806
                                                         0.077078       0.002319

                          1       7    5dx2              7.884570      -2.119015
                                                         3.894698      -1.237751
                                                         1.513589      -0.746777
                                                         0.596768      -0.071514
                                                         0.222222       0.004086
                                                         0.077078       0.017595
                          1       7    5dxy              7.884570      -3.670241
                                                         3.894698      -2.143848
                                                         1.513589      -1.293455
                                                         0.596768      -0.123865
                                                         0.222222       0.007077
                                                         0.077078       0.030475
                          1       7    5dxz              7.884570      -3.670241
                                                         3.894698      -2.143848
                                                         1.513589      -1.293455
                                                         0.596768      -0.123865
                                                         0.222222       0.007077
                                                         0.077078       0.030475
                          1       7    5dy2              7.884570      -2.119015
                                                         3.894698      -1.237751
                                                         1.513589      -0.746777
                                                         0.596768      -0.071514
                                                         0.222222       0.004086
                                                         0.077078       0.017595
                          1       7    5dyz              7.884570      -3.670241
                                                         3.894698      -2.143848
                                                         1.513589      -1.293455
                                                         0.596768      -0.123865
                                                         0.222222       0.007077
                                                         0.077078       0.030475
                          1       7    5dz2              7.884570      -2.119015
                                                         3.894698      -1.237751
                                                         1.513589      -0.746777
                                                         0.596768      -0.071514
                                                         0.222222       0.004086
                                                         0.077078       0.017595

                          1       8    5fx3              7.884570      -0.342058
                                                         3.894698       0.375798
                                                         1.513589      -0.706469
                                                         0.596768      -0.229994
                                                         0.222222      -0.012723
                                                         0.077078       0.003932
                          1       8    5fx2y             7.884570      -0.764866
                                                         3.894698       0.840310
                                                         1.513589      -1.579712
                                                         0.596768      -0.514282
                                                         0.222222      -0.028450
                                                         0.077078       0.008792
                          1       8    5fx2z             7.884570      -0.764866
                                                         3.894698       0.840310
                                                         1.513589      -1.579712
                                                         0.596768      -0.514282
                                                         0.222222      -0.028450
                                                         0.077078       0.008792
                          1       8    5fxy2             7.884570      -0.764866
                                                         3.894698       0.840310
                                                         1.513589      -1.579712
                                                         0.596768      -0.514282
                                                         0.222222      -0.028450
                                                         0.077078       0.008792
                          1       8    5fxyz             7.884570      -1.324787
                                                         3.894698       1.455460
                                                         1.513589      -2.736142
                                                         0.596768      -0.890763
                                                         0.222222      -0.049276
                                                         0.077078       0.015229
                          1       8    5fxz2             7.884570      -0.764866
                                                         3.894698       0.840310
                                                         1.513589      -1.579712
                                                         0.596768      -0.514282
                                                         0.222222      -0.028450
                                                         0.077078       0.008792
                          1       8    5fy3              7.884570      -0.342058
                                                         3.894698       0.375798
                                                         1.513589      -0.706469
                                                         0.596768      -0.229994
                                                         0.222222      -0.012723
                                                         0.077078       0.003932
                          1       8    5fy2z             7.884570      -0.764866
                                                         3.894698       0.840310
                                                         1.513589      -1.579712
                                                         0.596768      -0.514282
                                                         0.222222      -0.028450
                                                         0.077078       0.008792
                          1       8    5fyz2             7.884570      -0.764866
                                                         3.894698       0.840310
                                                         1.513589      -1.579712
                                                         0.596768      -0.514282
                                                         0.222222      -0.028450
                                                         0.077078       0.008792
                          1       8    5fz3              7.884570      -0.342058
                                                         3.894698       0.375798
                                                         1.513589      -0.706469
                                                         0.596768      -0.229994
                                                         0.222222      -0.012723
                                                         0.077078       0.003932

       Atomic covalent radius [Angstrom]:                                  1.320

       Atomic van der Waals radius [Angstrom]:                             1.760

     GTH Potential information for                                   GTH-PBE-q12

       Description:                       Goedecker-Teter-Hutter pseudopotential
                                           Goedecker et al., PRB 54, 1703 (1996)
                                          Hartwigsen et al., PRB 58, 3641 (1998)
                                                      Krack, TCA 114, 145 (2005)

       Gaussian exponent of the core charge distribution:               3.462604
       Electronic configuration (s p d ...):                           4   6   2

       Parameters of the local part of the GTH pseudopotential:

                          rloc        C1          C2          C3          C4
                        0.380000    8.711442   -0.700287

       Parameters of the non-local part of the GTH pseudopotential:

                   l      r(l)      h(i,j,l)

                   0    0.337771    2.575264    3.692971
                                    3.692971   -4.767605
                   1    0.242531   -4.630541    8.870875
                                    8.870875  -10.496161
                   2    0.243317   -9.406653

     A DFT+U correction is applied to atoms of this atomic kind:
       Angular quantum momentum number L:                                      2
       U(eff) = (U - J) value in [eV]:                                     4.200

  2. Atomic kind: O                                     Number of atoms:     129

     Orbital Basis Set                                        DZVP-MOLOPT-SR-GTH

       Number of orbital shell sets:                                           1
       Number of orbital shells:                                               5
       Number of primitive Cartesian functions:                                5
       Number of Cartesian basis functions:                                   14
       Number of spherical basis functions:                                   13
       Norm type:                                                              2

       Normalised Cartesian orbitals:

                        Set   Shell   Orbital            Exponent    Coefficient

                          1       1    2s               10.389228       0.396646
                                                         3.849621       0.208811
                                                         1.388401      -0.301641
                                                         0.496955      -0.274061
                                                         0.162492      -0.033677

                          1       2    3s               10.389228       0.303673
                                                         3.849621       0.240943
                                                         1.388401      -0.313066
                                                         0.496955      -0.043055
                                                         0.162492       0.213991

                          1       3    3px              10.389228      -1.530415
                                                         3.849621      -1.371928
                                                         1.388401      -0.761951
                                                         0.496955      -0.253695
                                                         0.162492      -0.035541
                          1       3    3py              10.389228      -1.530415
                                                         3.849621      -1.371928
                                                         1.388401      -0.761951
                                                         0.496955      -0.253695
                                                         0.162492      -0.035541
                          1       3    3pz              10.389228      -1.530415
                                                         3.849621      -1.371928
                                                         1.388401      -0.761951
                                                         0.496955      -0.253695
                                                         0.162492      -0.035541

                          1       4    4px              10.389228      -0.565392
                                                         3.849621      -0.038231
                                                         1.388401      -0.382373
                                                         0.496955       0.179070
                                                         0.162492       0.122714
                          1       4    4py              10.389228      -0.565392
                                                         3.849621      -0.038231
                                                         1.388401      -0.382373
                                                         0.496955       0.179070
                                                         0.162492       0.122714
                          1       4    4pz              10.389228      -0.565392
                                                         3.849621      -0.038231
                                                         1.388401      -0.382373
                                                         0.496955       0.179070
                                                         0.162492       0.122714

                          1       5    4dx2             10.389228       1.867377
                                                         3.849621       0.670994
                                                         1.388401       1.353441
                                                         0.496955       0.273538
                                                         0.162492       0.006620
                          1       5    4dxy             10.389228       3.234392
                                                         3.849621       1.162195
                                                         1.388401       2.344229
                                                         0.496955       0.473781
                                                         0.162492       0.011466
                          1       5    4dxz             10.389228       3.234392
                                                         3.849621       1.162195
                                                         1.388401       2.344229
                                                         0.496955       0.473781
                                                         0.162492       0.011466
                          1       5    4dy2             10.389228       1.867377
                                                         3.849621       0.670994
                                                         1.388401       1.353441
                                                         0.496955       0.273538
                                                         0.162492       0.006620
                          1       5    4dyz             10.389228       3.234392
                                                         3.849621       1.162195
                                                         1.388401       2.344229
                                                         0.496955       0.473781
                                                         0.162492       0.011466
                          1       5    4dz2             10.389228       1.867377
                                                         3.849621       0.670994
                                                         1.388401       1.353441
                                                         0.496955       0.273538
                                                         0.162492       0.006620

       Atomic covalent radius [Angstrom]:                                  0.730

       Atomic van der Waals radius [Angstrom]:                             1.520

     GTH Potential information for                                    GTH-PBE-q6

       Description:                       Goedecker-Teter-Hutter pseudopotential
                                           Goedecker et al., PRB 54, 1703 (1996)
                                          Hartwigsen et al., PRB 58, 3641 (1998)
                                                      Krack, TCA 114, 145 (2005)

       Gaussian exponent of the core charge distribution:               8.360253
       Electronic configuration (s p d ...):                               2   4

       Parameters of the local part of the GTH pseudopotential:

                          rloc        C1          C2          C3          C4
                        0.244554  -16.667215    2.487311

       Parameters of the non-local part of the GTH pseudopotential:

                   l      r(l)      h(i,j,l)

                   0    0.220956   18.337458
                   1    0.211332

  3. Atomic kind: H                                     Number of atoms:       2

     Orbital Basis Set                                        DZVP-MOLOPT-SR-GTH

       Number of orbital shell sets:                                           1
       Number of orbital shells:                                               3
       Number of primitive Cartesian functions:                                5
       Number of Cartesian basis functions:                                    5
       Number of spherical basis functions:                                    5
       Norm type:                                                              2

       Normalised Cartesian orbitals:

                        Set   Shell   Orbital            Exponent    Coefficient

                          1       1    2s               10.068468      -0.133023
                                                         2.680223      -0.177618
                                                         0.791502      -0.258419
                                                         0.239116      -0.107525
                                                         0.082193      -0.014019

                          1       2    3s               10.068468       0.344673
                                                         2.680223       1.819821
                                                         0.791502      -0.999069
                                                         0.239116       0.017430
                                                         0.082193       0.082660

                          1       3    3px              10.068468       0.155326
                                                         2.680223       0.367157
                                                         0.791502       0.311480
                                                         0.239116       0.080105
                                                         0.082193       0.033440
                          1       3    3py              10.068468       0.155326
                                                         2.680223       0.367157
                                                         0.791502       0.311480
                                                         0.239116       0.080105
                                                         0.082193       0.033440
                          1       3    3pz              10.068468       0.155326
                                                         2.680223       0.367157
                                                         0.791502       0.311480
                                                         0.239116       0.080105
                                                         0.082193       0.033440

       Atomic covalent radius [Angstrom]:                                  0.320

       Atomic van der Waals radius [Angstrom]:                             1.090

     GTH Potential information for                                    GTH-PBE-q1

       Description:                       Goedecker-Teter-Hutter pseudopotential
                                           Goedecker et al., PRB 54, 1703 (1996)
                                          Hartwigsen et al., PRB 58, 3641 (1998)
                                                      Krack, TCA 114, 145 (2005)

       Gaussian exponent of the core charge distribution:              12.500000
       Electronic configuration (s p d ...):                                   1

       Parameters of the local part of the GTH pseudopotential:

                          rloc        C1          C2          C3          C4
                        0.200000   -4.178900    0.724463


 MOLECULE KIND INFORMATION


 All atoms are their own molecule, skipping detailed information


 TOTAL NUMBERS AND MAXIMUM NUMBERS

  Total number of            - Atomic kinds:                                   3
                             - Atoms:                                        195
                             - Shell sets:                                   195
                             - Shells:                                      1163
                             - Primitive Cartesian functions:               1039
                             - Cartesian basis functions:                   3800
                             - Spherical basis functions:                   3351

  Maximum angular momentum of- Orbital basis functions:                        3
                             - Local part of the GTH pseudopotential:          2
                             - Non-local part of the GTH pseudopotential:      3


 MODULE QUICKSTEP:  ATOMIC COORDINATES IN angstrom

 Atom  Kind  Element       X           Y           Z          Z(eff)       Mass
    1   1 Ti  22       1.578886    1.510645    7.812337      12.0000     47.8670
    2   1 Ti  22       4.836736    1.513717   17.188703      12.0000     47.8670
    3   1 Ti  22       4.828253    1.512812   10.668057      12.0000     47.8670
    4   1 Ti  22       1.584759    1.509244   14.394258      12.0000     47.8670
    5   1 Ti  22       4.826431    0.032150    7.342914      12.0000     47.8670
    6   1 Ti  22       1.602358    0.028258   17.703605      12.0000     47.8670
    7   1 Ti  22       1.579434    0.031349   11.026879      12.0000     47.8670
    8   1 Ti  22       4.830724    0.047240   13.969998      12.0000     47.8670
    9   1 Ti  22       8.076417    1.510611    7.810499      12.0000     47.8670
   10   1 Ti  22      11.336946    1.512778   17.205396      12.0000     47.8670
   11   1 Ti  22      11.325425    1.510521   10.641493      12.0000     47.8670
   12   1 Ti  22       8.092641    1.507372   14.380636      12.0000     47.8670
   13   1 Ti  22      11.324273    0.031036    7.326454      12.0000     47.8670
   14   1 Ti  22       8.077640    0.023704   17.698366      12.0000     47.8670
   15   1 Ti  22       8.075247    0.030560   11.024397      12.0000     47.8670
   16   1 Ti  22      11.333034    0.029900   13.988270      12.0000     47.8670
   17   1 Ti  22       1.578241    4.469404    7.813207      12.0000     47.8670
   18   1 Ti  22       4.854621    4.463746   17.348659      12.0000     47.8670
   19   1 Ti  22       4.828569    4.468920   10.665278      12.0000     47.8670
   20   1 Ti  22       1.595172    4.469467   14.405402      12.0000     47.8670
   21   1 Ti  22       4.826460    2.989875    7.347882      12.0000     47.8670
   22   1 Ti  22       1.626631    2.980637   17.712954      12.0000     47.8670
   23   1 Ti  22       1.580151    2.990595   11.030353      12.0000     47.8670
   24   1 Ti  22       4.837899    3.021469   14.051555      12.0000     47.8670
   25   1 Ti  22       8.077178    4.469395    7.810942      12.0000     47.8670
   26   1 Ti  22      11.345426    4.469535   17.207038      12.0000     47.8670
   27   1 Ti  22      11.326159    4.469201   10.641766      12.0000     47.8670
   28   1 Ti  22       8.091073    4.468850   14.390101      12.0000     47.8670
   29   1 Ti  22      11.324274    2.990047    7.326727      12.0000     47.8670
   30   1 Ti  22       8.071424    2.964953   17.676308      12.0000     47.8670
   31   1 Ti  22       8.075841    2.990255   11.026630      12.0000     47.8670
   32   1 Ti  22      11.337272    2.990617   13.992403      12.0000     47.8670
   33   1 Ti  22       1.578934    7.428160    7.812296      12.0000     47.8670
   34   1 Ti  22       4.837645    7.429944   17.178250      12.0000     47.8670
   35   1 Ti  22       4.828564    7.425601   10.667539      12.0000     47.8670
   36   1 Ti  22       1.588161    7.428328   14.393758      12.0000     47.8670
   37   1 Ti  22       4.826481    5.949213    7.347620      12.0000     47.8670
   38   1 Ti  22       1.628440    5.958689   17.714611      12.0000     47.8670
   39   1 Ti  22       1.580390    5.947533   11.030558      12.0000     47.8670
   40   1 Ti  22       4.840070    5.914068   14.045524      12.0000     47.8670
   41   1 Ti  22       8.076418    7.428213    7.810271      12.0000     47.8670
   42   1 Ti  22      11.337282    7.425157   17.205591      12.0000     47.8670
   43   1 Ti  22      11.325678    7.427910   10.641457      12.0000     47.8670
   44   1 Ti  22       8.094688    7.430748   14.379165      12.0000     47.8670
   45   1 Ti  22      11.324304    5.949089    7.326734      12.0000     47.8670
   46   1 Ti  22       8.070060    5.972316   17.671723      12.0000     47.8670
   47   1 Ti  22       8.076020    5.947832   11.026416      12.0000     47.8670
   48   1 Ti  22      11.338109    5.947852   13.992341      12.0000     47.8670
   49   1 Ti  22       1.578402   10.387444    7.810762      12.0000     47.8670
   50   1 Ti  22       4.838335   10.389142   17.180571      12.0000     47.8670
   51   1 Ti  22       4.827884   10.387401   10.655181      12.0000     47.8670
   52   1 Ti  22       1.585868   10.386893   14.389509      12.0000     47.8670
   53   1 Ti  22       4.826459    8.906866    7.342636      12.0000     47.8670
   54   1 Ti  22       1.602763    8.911358   17.704183      12.0000     47.8670
   55   1 Ti  22       1.579640    8.906969   11.026504      12.0000     47.8670
   56   1 Ti  22       4.831656    8.892618   13.964965      12.0000     47.8670
   57   1 Ti  22       8.077030   10.387464    7.808882      12.0000     47.8670
   58   1 Ti  22      11.335705   10.387153   17.199161      12.0000     47.8670
   59   1 Ti  22      11.325455   10.387216   10.641180      12.0000     47.8670
   60   1 Ti  22       8.079735   10.386938   14.384946      12.0000     47.8670
   61   1 Ti  22      11.324299    8.908086    7.326445      12.0000     47.8670
   62   1 Ti  22       8.079554    8.913612   17.698033      12.0000     47.8670
   63   1 Ti  22       8.075442    8.907821   11.023821      12.0000     47.8670
   64   1 Ti  22      11.333973    8.908043   13.988588      12.0000     47.8670
   65   2 O    8       1.581443    1.510744    9.607870       6.0000     15.9994
   66   2 O    8       1.576077    1.498945   16.210257       6.0000     15.9994
   67   2 O    8       4.824856    1.492724   15.367953       6.0000     15.9994
   68   2 O    8       4.827793    1.510173    8.823616       6.0000     15.9994
   69   2 O    8       4.828840    1.511842    6.268208       6.0000     15.9994
   70   2 O    8       4.837956    1.521311   12.828334       6.0000     15.9994
   71   2 O    8       1.556739    1.496403   18.782965       6.0000     15.9994
   72   2 O    8       1.574666    1.510430   12.168063       6.0000     15.9994
   73   2 O    8       0.358151    0.031115    7.451789       6.0000     15.9994
   74   2 O    8       3.547678    0.030975   10.836880       6.0000     15.9994
   75   2 O    8       2.797857    0.031131    7.453382       6.0000     15.9994
   76   2 O    8       6.113224    0.030916   10.831882       6.0000     15.9994
   77   2 O    8       6.070830    0.004391   17.556362       6.0000     15.9994
   78   2 O    8       2.856183    0.028177   14.164858       6.0000     15.9994
   79   2 O    8       3.610626    0.000483   17.563639       6.0000     15.9994
   80   2 O    8       0.302686    0.029886   14.175020       6.0000     15.9994
   81   2 O    8       8.081802    1.510672    9.606702       6.0000     15.9994
   82   2 O    8       8.137612    1.493898   16.202190       6.0000     15.9994
   83   2 O    8      11.326910    1.510649   15.398165       6.0000     15.9994
   84   2 O    8      11.323837    1.510522    8.806925       6.0000     15.9994
   85   2 O    8      11.326427    1.510580    6.251000       6.0000     15.9994
   86   2 O    8      11.336758    1.512159   12.831969       6.0000     15.9994
   87   2 O    8       8.112704    1.503962   18.771058       6.0000     15.9994
   88   2 O    8       8.083311    1.510093   12.166679       6.0000     15.9994
   89   2 O    8       6.858196    0.030990    7.455418       6.0000     15.9994
   90   2 O    8      10.048147    0.030789   10.830860       6.0000     15.9994
   91   2 O    8       9.297719    0.031045    7.447366       6.0000     15.9994
   92   2 O    8      12.605891    0.031139   10.825459       6.0000     15.9994
   93   2 O    8      12.553657    0.030372   17.550010       6.0000     15.9994
   94   2 O    8       9.368006    0.025063   14.160309       6.0000     15.9994
   95   2 O    8      10.119584    0.027080   17.563477       6.0000     15.9994
   96   2 O    8       6.814688    0.031221   14.174192       6.0000     15.9994
   97   2 O    8       1.580574    4.469323    9.608955       6.0000     15.9994
   98   2 O    8       1.612957    4.473661   16.224891       6.0000     15.9994
   99   2 O    8       4.834132    4.472121   15.386868       6.0000     15.9994
  100   2 O    8       4.827995    4.469191    8.824238       6.0000     15.9994
  101   2 O    8       4.828877    4.469347    6.271214       6.0000     15.9994
  102   2 O    8       4.838969    4.466918   12.833773       6.0000     15.9994
  103   2 O    8       1.614808    4.469870   18.780113       6.0000     15.9994
  104   2 O    8       1.576442    4.468975   12.170578       6.0000     15.9994
  105   2 O    8       0.358201    2.989926    7.452283       6.0000     15.9994
  106   2 O    8       3.547509    2.991017   10.837219       6.0000     15.9994
  107   2 O    8       2.797714    2.990272    7.455467       6.0000     15.9994
  108   2 O    8       6.114191    2.990706   10.832325       6.0000     15.9994
  109   2 O    8       6.128351    2.846218   17.481471       6.0000     15.9994
  110   2 O    8       2.854362    2.986654   14.177592       6.0000     15.9994
  111   2 O    8       3.582668    2.868448   17.573032       6.0000     15.9994
  112   2 O    8       0.305789    2.993151   14.188596       6.0000     15.9994
  113   2 O    8       8.082828    4.469234    9.607443       6.0000     15.9994
  114   2 O    8       8.118978    4.469074   16.209691       6.0000     15.9994
  115   2 O    8      11.329150    4.469478   15.398338       6.0000     15.9994
  116   2 O    8      11.324254    4.469286    8.807116       6.0000     15.9994
  117   2 O    8      11.326424    4.469459    6.251149       6.0000     15.9994
  118   2 O    8      11.338784    4.469129   12.832362       6.0000     15.9994
  119   2 O    8       7.943723    4.470563   18.774186       6.0000     15.9994
  120   2 O    8       8.080521    4.469127   12.168338       6.0000     15.9994
  121   2 O    8       6.858428    2.990143    7.457168       6.0000     15.9994
  122   2 O    8      10.048186    2.990207   10.831624       6.0000     15.9994
  123   2 O    8       9.297738    2.989893    7.447881       6.0000     15.9994
  124   2 O    8      12.606210    2.989759   10.826767       6.0000     15.9994
  125   2 O    8      12.558673    2.989682   17.552861       6.0000     15.9994
  126   2 O    8       9.370066    2.990572   14.165782       6.0000     15.9994
  127   2 O    8      10.116662    2.997990   17.580564       6.0000     15.9994
  128   2 O    8       6.820690    2.985442   14.187727       6.0000     15.9994
  129   2 O    8       1.581636    7.427680    9.607835       6.0000     15.9994
  130   2 O    8       1.588815    7.434519   16.212449       6.0000     15.9994
  131   2 O    8       4.816144    7.441723   15.362474       6.0000     15.9994
  132   2 O    8       4.827908    7.428191    8.823018       6.0000     15.9994
  133   2 O    8       4.828790    7.427028    6.267791       6.0000     15.9994
  134   2 O    8       4.838999    7.417560   12.824905       6.0000     15.9994
  135   2 O    8       1.556022    7.443283   18.786176       6.0000     15.9994
  136   2 O    8       1.574682    7.428145   12.167893       6.0000     15.9994
  137   2 O    8       0.358229    5.948968    7.452211       6.0000     15.9994
  138   2 O    8       3.547689    5.947051   10.837391       6.0000     15.9994
  139   2 O    8       2.797735    5.948543    7.455322       6.0000     15.9994
  140   2 O    8       6.114211    5.947219   10.832353       6.0000     15.9994
  141   2 O    8       6.129439    6.098816   17.474537       6.0000     15.9994
  142   2 O    8       2.854203    5.950645   14.172350       6.0000     15.9994
  143   2 O    8       3.597964    6.067562   17.625723       6.0000     15.9994
  144   2 O    8       0.306130    5.946763   14.188917       6.0000     15.9994
  145   2 O    8       8.081659    7.427729    9.606445       6.0000     15.9994
  146   2 O    8       8.141301    7.445945   16.200691       6.0000     15.9994
  147   2 O    8      11.326378    7.427328   15.398180       6.0000     15.9994
  148   2 O    8      11.323960    7.427946    8.806867       6.0000     15.9994
  149   2 O    8      11.326412    7.428358    6.250954       6.0000     15.9994
  150   2 O    8      11.337189    7.426268   12.831792       6.0000     15.9994
  151   2 O    8       8.106714    7.432264   18.772060       6.0000     15.9994
  152   2 O    8       8.083494    7.428387   12.166182       6.0000     15.9994
  153   2 O    8       6.858434    5.948537    7.456900       6.0000     15.9994
  154   2 O    8      10.048249    5.948247   10.831588       6.0000     15.9994
  155   2 O    8       9.297752    5.948857    7.447833       6.0000     15.9994
  156   2 O    8      12.606346    5.948586   10.826811       6.0000     15.9994
  157   2 O    8      12.559053    5.949740   17.555778       6.0000     15.9994
  158   2 O    8       9.370382    5.947295   14.165018       6.0000     15.9994
  159   2 O    8      10.116303    5.940788   17.579570       6.0000     15.9994
  160   2 O    8       6.820923    5.953570   14.186205       6.0000     15.9994
  161   2 O    8       1.581622   10.387427    9.606370       6.0000     15.9994
  162   2 O    8       1.579493   10.386395   16.207363       6.0000     15.9994
  163   2 O    8       4.835327   10.386029   15.374033       6.0000     15.9994
  164   2 O    8       4.827542   10.387355    8.817863       6.0000     15.9994
  165   2 O    8       4.828918   10.387488    6.266786       6.0000     15.9994
  166   2 O    8       4.836632   10.387913   12.814891       6.0000     15.9994
  167   2 O    8       1.568569   10.387020   18.778843       6.0000     15.9994
  168   2 O    8       1.574161   10.387082   12.165215       6.0000     15.9994
  169   2 O    8       0.358177    8.907746    7.451817       6.0000     15.9994
  170   2 O    8       3.547798    8.907600   10.836495       6.0000     15.9994
  171   2 O    8       2.797888    8.907749    7.453346       6.0000     15.9994
  172   2 O    8       6.113343    8.907801   10.831267       6.0000     15.9994
  173   2 O    8       6.069428    8.929555   17.556651       6.0000     15.9994
  174   2 O    8       2.856293    8.910484   14.162591       6.0000     15.9994
  175   2 O    8       3.611430    8.937754   17.565641       6.0000     15.9994
  176   2 O    8       0.303545    8.906242   14.177417       6.0000     15.9994
  177   2 O    8       8.081943   10.387440    9.605291       6.0000     15.9994
  178   2 O    8       8.101839   10.385891   16.208318       6.0000     15.9994
  179   2 O    8      11.328676   10.386881   15.391624       6.0000     15.9994
  180   2 O    8      11.323968   10.387313    8.806337       6.0000     15.9994
  181   2 O    8      11.326436   10.387449    6.250717       6.0000     15.9994
  182   2 O    8      11.337495   10.386843   12.828460       6.0000     15.9994
  183   2 O    8       8.104262   10.385854   18.777303       6.0000     15.9994
  184   2 O    8       8.079803   10.387032   12.164263       6.0000     15.9994
  185   2 O    8       6.858194    8.907795    7.455234       6.0000     15.9994
  186   2 O    8      10.048203    8.907554   10.830482       6.0000     15.9994
  187   2 O    8       9.297732    8.907728    7.447399       6.0000     15.9994
  188   2 O    8      12.606000    8.907328   10.825237       6.0000     15.9994
  189   2 O    8      12.555263    8.906785   17.546667       6.0000     15.9994
  190   2 O    8       9.368322    8.913400   14.158828       6.0000     15.9994
  191   2 O    8      10.120506    8.910275   17.567508       6.0000     15.9994
  192   2 O    8       6.813851    8.905775   14.174525       6.0000     15.9994
  193   2 O    8       5.318465    4.415372   19.533771       6.0000     15.9994
  194   3 H    1       5.035902    5.216004   20.007508       1.0000      1.0079
  195   3 H    1       6.322825    4.449975   19.492984       1.0000      1.0079




 SCF PARAMETERS         Density guess:                                   RESTART
                        --------------------------------------------------------
                        max_scf:                                             100
                        max_scf_history:                                       0
                        max_diis:                                              4
                        --------------------------------------------------------
                        eps_scf:                                        5.00E-07
                        eps_scf_history:                                0.00E+00
                        eps_diis:                                       1.00E-01
                        eps_eigval:                                     1.00E-05
                        --------------------------------------------------------
                        level_shift [a.u.]:                             0.000000
                        --------------------------------------------------------
                        Outer loop SCF in use 
                        No variables optimised in outer loop
                        eps_scf                                         5.00E-07
                        max_scf                                               20
                        DIIS optimization
                        DIIS buffer length                                     3
                        step_size                                       1.50E-01

 PW_GRID| Information for grid number                                          1
 PW_GRID| Grid distributed over                                    40 processors
 PW_GRID| Real space group dimensions                                    40    1
 PW_GRID| the grid is blocked:                                                NO
 PW_GRID| Cutoff [a.u.]                                                    250.0
 PW_GRID| spherical cutoff:                                                   NO
 PW_GRID|   Bounds   1            -96      95                Points:         192
 PW_GRID|   Bounds   2            -96      95                Points:         192
 PW_GRID|   Bounds   3           -192     191                Points:         384
 PW_GRID| Volume element (a.u.^3)  0.1833E-02     Volume (a.u.^3)     25946.4383
 PW_GRID| Grid span                                                    FULLSPACE
 PW_GRID|   Distribution                         Average         Max         Min
 PW_GRID|   G-Vectors                           353894.4      354048      353856
 PW_GRID|   G-Rays                                1843.2        1844        1843
 PW_GRID|   Real Space Points                   353894.4      368640      294912

 PW_GRID| Information for grid number                                          2
 PW_GRID| Number of the reference grid                                         1
 PW_GRID| Grid distributed over                                    40 processors
 PW_GRID| Real space group dimensions                                    40    1
 PW_GRID| the grid is blocked:                                                NO
 PW_GRID| Cutoff [a.u.]                                                     62.5
 PW_GRID| spherical cutoff:                                                   NO
 PW_GRID|   Bounds   1            -48      47                Points:          96
 PW_GRID|   Bounds   2            -48      47                Points:          96
 PW_GRID|   Bounds   3            -96      95                Points:         192
 PW_GRID| Volume element (a.u.^3)  0.1466E-01     Volume (a.u.^3)     25946.4383
 PW_GRID| Grid span                                                    FULLSPACE
 PW_GRID|   Distribution                         Average         Max         Min
 PW_GRID|   G-Vectors                            44236.8       45408       43296
 PW_GRID|   G-Rays                                 460.8         473         451
 PW_GRID|   Real Space Points                    44236.8       55296       36864

 PW_GRID| Information for grid number                                          3
 PW_GRID| Number of the reference grid                                         1
 PW_GRID| Grid distributed over                                    40 processors
 PW_GRID| Real space group dimensions                                    40    1
 PW_GRID| the grid is blocked:                                                NO
 PW_GRID| Cutoff [a.u.]                                                     15.6
 PW_GRID| spherical cutoff:                                                   NO
 PW_GRID|   Bounds   1            -24      23                Points:          48
 PW_GRID|   Bounds   2            -24      23                Points:          48
 PW_GRID|   Bounds   3            -48      47                Points:          96
 PW_GRID| Volume element (a.u.^3)  0.1173         Volume (a.u.^3)     25946.4383
 PW_GRID| Grid span                                                    FULLSPACE
 PW_GRID|   Distribution                         Average         Max         Min
 PW_GRID|   G-Vectors                             5529.6        5952        5040
 PW_GRID|   G-Rays                                 115.2         124         105
 PW_GRID|   Real Space Points                     5529.6        9216        4608

 PW_GRID| Information for grid number                                          4
 PW_GRID| Number of the reference grid                                         1
 PW_GRID| Grid distributed over                                    40 processors
 PW_GRID| Real space group dimensions                                    40    1
 PW_GRID| the grid is blocked:                                                NO
 PW_GRID| Cutoff [a.u.]                                                      3.9
 PW_GRID| spherical cutoff:                                                   NO
 PW_GRID|   Bounds   1            -12      11                Points:          24
 PW_GRID|   Bounds   2            -12      11                Points:          24
 PW_GRID|   Bounds   3            -24      23                Points:          48
 PW_GRID| Volume element (a.u.^3)  0.9385         Volume (a.u.^3)     25946.4383
 PW_GRID| Grid span                                                    FULLSPACE
 PW_GRID|   Distribution                         Average         Max         Min
 PW_GRID|   G-Vectors                              691.2         744         624
 PW_GRID|   G-Rays                                  28.8          31          26
 PW_GRID|   Real Space Points                      691.2        1152           0

 PW_GRID| Information for grid number                                          5
 PW_GRID| Number of the reference grid                                         1
 PW_GRID| Grid distributed over                                    40 processors
 PW_GRID| Real space group dimensions                                    40    1
 PW_GRID| the grid is blocked:                                                NO
 PW_GRID| Cutoff [a.u.]                                                      1.0
 PW_GRID| spherical cutoff:                                                   NO
 PW_GRID|   Bounds   1             -6       5                Points:          12
 PW_GRID|   Bounds   2             -6       5                Points:          12
 PW_GRID|   Bounds   3            -12      11                Points:          24
 PW_GRID| Volume element (a.u.^3)   7.508         Volume (a.u.^3)     25946.4383
 PW_GRID| Grid span                                                    FULLSPACE
 PW_GRID|   Distribution                         Average         Max         Min
 PW_GRID|   G-Vectors                               86.4         120          60
 PW_GRID|   G-Rays                                   7.2          10           5
 PW_GRID|   Real Space Points                       86.4         288           0

 POISSON| Solver                                                        PERIODIC
 POISSON| Periodicity                                                        XYZ

 RS_GRID| Information for grid number                                          1
 RS_GRID|   Bounds   1            -96      95                Points:         192
 RS_GRID|   Bounds   2            -96      95                Points:         192
 RS_GRID|   Bounds   3           -192     191                Points:         384
 RS_GRID| Real space distribution over                                  4 groups
 RS_GRID| Real space distribution along direction                              2
 RS_GRID| Border size                                                         30
 RS_GRID| Real space distribution over                                 10 groups
 RS_GRID| Real space distribution along direction                              3
 RS_GRID| Border size                                                         30
 RS_GRID|   Distribution                         Average         Max         Min
 RS_GRID|   Planes                                 108.0         108         108
 RS_GRID|   Distribution                         Average         Max         Min
 RS_GRID|   Planes                                  98.4          99          98

 RS_GRID| Information for grid number                                          2
 RS_GRID|   Bounds   1            -48      47                Points:          96
 RS_GRID|   Bounds   2            -48      47                Points:          96
 RS_GRID|   Bounds   3            -96      95                Points:         192
 RS_GRID| Real space distribution over                                  4 groups
 RS_GRID| Real space distribution along direction                              2
 RS_GRID| Border size                                                         33
 RS_GRID| Real space distribution over                                 10 groups
 RS_GRID| Real space distribution along direction                              3
 RS_GRID| Border size                                                         33
 RS_GRID|   Distribution                         Average         Max         Min
 RS_GRID|   Planes                                  90.0          90          90
 RS_GRID|   Distribution                         Average         Max         Min
 RS_GRID|   Planes                                  85.2          86          85

 RS_GRID| Information for grid number                                          3
 RS_GRID|   Bounds   1            -24      23                Points:          48
 RS_GRID|   Bounds   2            -24      23                Points:          48
 RS_GRID|   Bounds   3            -48      47                Points:          96
 RS_GRID| Real space fully replicated
 RS_GRID| Group size                                                           1

 RS_GRID| Information for grid number                                          4
 RS_GRID|   Bounds   1            -12      11                Points:          24
 RS_GRID|   Bounds   2            -12      11                Points:          24
 RS_GRID|   Bounds   3            -24      23                Points:          48
 RS_GRID| Real space fully replicated
 RS_GRID| Group size                                                           1

 RS_GRID| Information for grid number                                          5
 RS_GRID|   Bounds   1             -6       5                Points:          12
 RS_GRID|   Bounds   2             -6       5                Points:          12
 RS_GRID|   Bounds   3            -12      11                Points:          24
 RS_GRID| Real space fully replicated
 RS_GRID| Group size                                                           1

 BFGS| Use rational function optimization for step estimation:                NO
 BFGS| Use model Hessian for initial guess:                                  YES
 BFGS| Restart Hessian:                                                       NO
 BFGS| Trust radius:                                                       0.472

 *** WARNING in fm/cp_fm_elpa.F:521 :: Setting real_kernel for ELPA failed ***


 *******************************************************************************
 ***                     STARTING GEOMETRY OPTIMIZATION                      ***
 ***                                   BFGS                                  ***
 *******************************************************************************

 Spin 1

 Number of electrons:                                                        773
 Number of occupied orbitals:                                                773
 Number of molecular orbitals:                                               773

 Spin 2

 Number of electrons:                                                        772
 Number of occupied orbitals:                                                772
 Number of molecular orbitals:                                               772

 Number of orbital functions:                                               3351

 *** WARNING in fm/cp_fm_elpa.F:521 :: Setting real_kernel for ELPA failed ***

 Number of independent orbital functions:                                   3351

 Extrapolation method: initial_guess


 CDFT EXTERNAL SCF WAVEFUNCTION OPTIMIZATION

  ---------------------------------- CDFT --------------------------------------
  Optimizing a density constraint in an external SCF loop 
  
  Type of constraint:     Hirshfeld
  Number of constraints:          1
  Using fragment densities:       F
  
  Calculating atomic CDFT charges

  Minimizer               : Secant

  Reusing OT preconditioner:       F

  Hirshfeld constraint settings
  
  Shape function type:      Density

  ---------------------------------- CDFT --------------------------------------


 SCF WAVEFUNCTION OPTIMIZATION

  ----------------------------------- OT ---------------------------------------
  Minimizer      : CG                  : conjugate gradient
  Preconditioner : FULL_ALL            : diagonalization, state selective
  Precond_solver : DEFAULT
  Line search    : 2PNT                : 2 energies, one gradient
  stepsize       :    0.15000000                  energy_gap     :    0.00100000
  ortho_irac     : CHOL                           irac_degree    :             4
  max_irac       :            50                  eps_irac       :   0.10000E-09
  eps_irac_switch:   0.10000E-01                  eps_irac_quick_exit: 0.100E-04
  on_the_fly_loc : F
  ----------------------------------- OT ---------------------------------------

  Step     Update method      Time    Convergence         Total energy    Change
  ------------------------------------------------------------------------------

  ----------------------- CDFT group definitions -------------------------
    Atomic group    1 of     1
    Atom  Element  Coefficient
      18       Ti        1.000
  ------------------------------------------------------------------------

  ------------------- Hirshfeld constraint information -------------------
  Atomic group                :                                          1
  Type of constraint          :           Magnetization density constraint
  Target value of constraint  :                             1.000000000000
  Current value of constraint :                             0.998824204759
  Deviation from target       :                                 -1.176E-03
  Strength of constraint      :                             0.000000000000
  ------------------------------------------------------------------------

  ------------------------------------------ CDFT atomic charges -------------------------------------------
  #Atom  Element   Is_constraint   Core charge    Population (alpha, beta)    Net charge      Spin population
     18       Ti               T        12.000         6.235         5.236         0.528                0.999

  Total Charge and Spin Moment:                                                    0.528                0.999


 *** WARNING in fm/cp_fm_elpa.F:521 :: Setting real_kernel for ELPA failed ***


 *** WARNING in fm/cp_fm_elpa.F:521 :: Setting real_kernel for ELPA failed ***


 *** WARNING in fm/cp_fm_elpa.F:521 :: Setting real_kernel for ELPA failed ***


 *** WARNING in fm/cp_fm_elpa.F:521 :: Setting real_kernel for ELPA failed ***


 *** WARNING in fm/cp_fm_elpa.F:521 :: Setting real_kernel for ELPA failed ***


[...]
 *    |                                                                        *
 *  O/|                                                                        *
 * /| |                                                                        *
 * / \                                           mpiwrap/message_passing.F:843 *
 *******************************************************************************


 *******************************************************************************
 *   ___                                                                       *
 *  /   \                                                                      *
 * [ABORT]                                                                     *
 *  \___/        mp_world_finalize: assert failed:  leaking communicators      *
 *    |                                                                        *
 *  O/|                                                                        *
 * /| |                                                                        *
 * / \                                           mpiwrap/message_passing.F:843 *
 *******************************************************************************

 *******************************************************************************


 *******************************************************************************
 *   ___                                                                       *
 *  /   \                                                                      *
 * [ABORT]                                                                     *
 *  \___/        mp_world_finalize: assert failed:  leaking communicators      *
 *    |                                                                        *
 *  O/|                                                                        *
 * /| |                                                                        *
 * / \                                           mpiwrap/message_passing.F:843 *
 *******************************************************************************


 *******************************************************************************
 *   ___                                                                       *
 *  /   \                                                                      *
 * [ABORT]                                                                     *
 *  \___/        mp_world_finalize: assert failed:  leaking communicators      *
 *    |                                                                        *
 *  O/|                                                                        *
 * /| |                                                                        *
 * / \                                           mpiwrap/message_passing.F:843 *
 *******************************************************************************


 *******************************************************************************
 *   ___                                                                       *
 *  /   \                                                                      *
 * [ABORT]                                                                     *
 *  \___/        mp_world_finalize: assert failed:  leaking communicators      *
 *    |                                                                        *
 *  O/|                                                                        *
 * /| |                                                                        *
 * / \                                           mpiwrap/message_passing.F:843 *
 *******************************************************************************


 *******************************************************************************
 *   ___                                                                       *
 *  /   \                                                                      *
 * [ABORT]                                                                     *
 *  \___/        mp_world_finalize: assert failed:  leaking communicators      *
 *    |                                                                        *
 *  O/|                                                                        *
 * /| |                                                                        *
 * / \                                           mpiwrap/message_passing.F:843 *
 *******************************************************************************


 *******************************************************************************
 *   ___                                                                       *
 *  /   \                                                                      *
 * [ABORT]                                                                     *
 *  \___/        mp_world_finalize: assert failed:  leaking communicators      *
 *    |                                                                        *
 *  O/|                                                                        *
 * /| |                                                                        *
 * / \                                           mpiwrap/message_passing.F:843 *
 *******************************************************************************


 *******************************************************************************
 *   ___                                                                       *
 *  /   \                                                                      *
 * [ABORT]                                                                     *
 *  \___/        mp_world_finalize: assert failed:  leaking communicators      *
 *    |                                                                        *
 *  O/|                                                                        *
 * /| |                                                                        *
 * / \                                           mpiwrap/message_passing.F:843 *
 *******************************************************************************


 *******************************************************************************
 *   ___                                                                       *
 *  /   \                                                                      *
 * [ABORT]                                                                     *
 *  \___/        mp_world_finalize: assert failed:  leaking communicators      *
 *    |                                                                        *
 *  O/|                                                                        *
 * /| |                                                                        *
 * / \                                           mpiwrap/message_passing.F:843 *
 *******************************************************************************


 *******************************************************************************
 *   ___                                                                       *
 *  /   \                                                                      *
 * [ABORT]                                                                     *
 *  \___/        mp_world_finalize: assert failed:  leaking communicators      *
 *    |                                                                        *
 *  O/|                                                                        *
 * /| |                                                                        *
 * / \                                           mpiwrap/message_passing.F:843 *
 *******************************************************************************


 *******************************************************************************
 *   ___                                                                       *
 *  /   \                                                                      *
 * [ABORT]                                                                     *
 *  \___/        mp_world_finalize: assert failed:  leaking communicators      *
 *    |                                                                        *
 *  O/|                                                                        *
 * /| |                                                                        *
 * / \                                           mpiwrap/message_passing.F:843 *
 *******************************************************************************


 *******************************************************************************
 *   ___                                                                       *
 *  /   \                                                                      *
 * [ABORT]                                                                     *
 *  \___/        mp_world_finalize: assert failed:  leaking communicators      *
 *    |                                                                        *
 *  O/|                                                                        *
 * /| |                                                                        *
 * / \                                           mpiwrap/message_passing.F:843 *
 *******************************************************************************


 *******************************************************************************
 *   ___                                                                       *
 *  /   \                                                                      *
 * [ABORT]                                                                     *
 *  \___/        mp_world_finalize: assert failed:  leaking communicators      *
 *    |                                                                        *
 *  O/|                                                                        *
 * /| |                                                                        *
 * / \                                           mpiwrap/message_passing.F:843 *
 *******************************************************************************


 *******************************************************************************
 *   ___                                                                       *
 *  /   \                                                                      *
 * [ABORT]                                                                     *
 *  \___/        mp_world_finalize: assert failed:  leaking communicators      *
 *    |                                                                        *
 *  O/|                                                                        *
 * /| |                                                                        *
 * / \                                           mpiwrap/message_passing.F:843 *
 *******************************************************************************


 *******************************************************************************
 *   ___                                                                       *
 *  /   \                                                                      *
 * [ABORT]                                                                     *
 *  \___/        mp_world_finalize: assert failed:  leaking communicators      *
 *    |                                                                        *
 *  O/|                                                                        *
 * /| |                                                                        *
 * / \                                           mpiwrap/message_passing.F:843 *
 *******************************************************************************


 *******************************************************************************
 *   ___                                                                       *
 *  /   \                                                                      *
 * [ABORT]                                                                     *
 *  \___/        mp_world_finalize: assert failed:  leaking communicators      *
 *    |                                                                        *
 *  O/|                                                                        *
 * /| |                                                                        *
 * / \                                           mpiwrap/message_passing.F:843 *
 *******************************************************************************


 *******************************************************************************
 *   ___                                                                       *
 *  /   \                                                                      *
 * [ABORT]                                                                     *
 *  \___/        mp_world_finalize: assert failed:  leaking communicators      *
 *    |                                                                        *
 *  O/|                                                                        *
 * /| |                                                                        *
 * / \                                           mpiwrap/message_passing.F:843 *
 *******************************************************************************


 *******************************************************************************
 *   ___                                                                       *
 *  /   \                                                                      *
 * [ABORT]                                                                     *
 *  \___/        mp_world_finalize: assert failed:  leaking communicators      *
 *    |                                                                        *
 *  O/|                                                                        *
 * /| |                                                                        *
 * / \                                           mpiwrap/message_passing.F:843 *
 *******************************************************************************


 *******************************************************************************
 *   ___                                                                       *
 *  /   \                                                                      *
 * [ABORT]                                                                     *
 *  \___/        mp_world_finalize: assert failed:  leaking communicators      *
 *    |                                                                        *
 *  O/|                                                                        *
 * /| |                                                                        *
 * / \                                           mpiwrap/message_passing.F:843 *
 *******************************************************************************


 *******************************************************************************
 *   ___                                                                       *
 *  /   \                                                                      *
 * [ABORT]                                                                     *
 *  \___/        mp_world_finalize: assert failed:  leaking communicators      *
 *    |                                                                        *
 *  O/|                                                                        *
 * /| |                                                                        *
 * / \                                           mpiwrap/message_passing.F:843 *
 *******************************************************************************


 *******************************************************************************
 *   ___                                                                       *
 *  /   \                                                                      *
 * [ABORT]                                                                     *
 *  \___/        mp_world_finalize: assert failed:  leaking communicators      *
 *    |                                                                        *
 *  O/|                                                                        *
 * /| |                                                                        *
 * / \                                           mpiwrap/message_passing.F:843 *
 *******************************************************************************


 *******************************************************************************
 *   ___                                                                       *
 *  /   \                                                                      *
 * [ABORT]                                                                     *
 *  \___/        mp_world_finalize: assert failed:  leaking communicators      *
 *    |                                                                        *
 *  O/|                                                                        *
 * /| |                                                                        *
 * / \                                           mpiwrap/message_passing.F:843 *
 *******************************************************************************


 *******************************************************************************
 *   ___                                                                       *
 *  /   \                                                                      *
 * [ABORT]                                                                     *
 *  \___/        mp_world_finalize: assert failed:  leaking communicators      *
 *    |                                                                        *
 *  O/|                                                                        *
 * /| |                                                                        *
 * / \                                           mpiwrap/message_passing.F:843 *
 *******************************************************************************


 *******************************************************************************
 *   ___                                                                       *
 *  /   \                                                                      *
 * [ABORT]                                                                     *
 *  \___/        mp_world_finalize: assert failed:  leaking communicators      *
 *    |                                                                        *
 *  O/|                                                                        *
 * /| |                                                                        *
 * / \                                           mpiwrap/message_passing.F:843 *
 *******************************************************************************


 *******************************************************************************
 *   ___                                                                       *
 *  /   \                                                                      *
 * [ABORT]                                                                     *
 *  \___/        mp_world_finalize: assert failed:  leaking communicators      *
 *    |                                                                        *
 *  O/|                                                                        *
 * /| |                                                                        *
 * / \                                           mpiwrap/message_passing.F:843 *
 *******************************************************************************

