 DBCSR| CPU Multiplication driver                                           XSMM
 DBCSR| Multrec recursion limit                                              512
 DBCSR| Multiplication stack size                                           1000
 DBCSR| Maximum elements for images                                    UNLIMITED
 DBCSR| Multiplicative factor virtual images                                   1
 DBCSR| Use multiplication densification                                       T
 DBCSR| Multiplication size stacks                                             3
 DBCSR| Use memory pool for CPU allocation                                     F
 DBCSR| Number of 3D layers                                               SINGLE
 DBCSR| Use MPI memory allocation                                              F
 DBCSR| Use RMA algorithm                                                      F
 DBCSR| Use Communication thread                                               T
 DBCSR| Communication thread load                                             87
 DBCSR| MPI: My node id                                                        0
 DBCSR| MPI: Number of nodes                                                  40
 DBCSR| OMP: Current number of threads                                         1
 DBCSR| OMP: Max number of threads                                             1
 DBCSR| Split modifier for TAS multiplication algorithm                  1.0E+00


  **** **** ******  **  PROGRAM STARTED AT               2023-05-25 08:48:05.225
 ***** ** ***  *** **   PROGRAM STARTED ON                                node10
 **    ****   ******    PROGRAM STARTED BY                                  wyin
 ***** **    ** ** **   PROGRAM PROCESS ID                                  1886
  **** **  *******  **  PROGRAM STARTED IN /home/wyin/bozai/job/1-TiO2/1-Bulk/3-
                                           Marcus/3-Hab/1-46-28

 CP2K| version string:                                       CP2K version 2022.1
 CP2K| source code revision number:                                  git:2caeb6f
 CP2K| cp2kflags: omp libint fftw3 libxc elpa parallel mpi3 scalapack xsmm plume
 CP2K|            d2 spglib mkl libvori libbqb
 CP2K| is freely available from                            https://www.cp2k.org/
 CP2K| Program compiled at                          Mon Mar 13 16:18:57 CET 2023
 CP2K| Program compiled on                                               login02
 CP2K| Program compiled for                                                local
 CP2K| Data directory path                   /home/wyin/package/cp2k-2022.1/data
 CP2K| Input file name                                                 input.inp
 
 GLOBAL| Force Environment number                                              1
 GLOBAL| Basis set file name                                           BASIS_SET
 GLOBAL| Potential file name                                           POTENTIAL
 GLOBAL| MM Potential file name                                     MM_POTENTIAL
 GLOBAL| Coordinate file name                                           bulk.xyz
 GLOBAL| Force Environment number                                              2
 GLOBAL| Basis set file name            /home/wyin/bozai/Bootstrap/BASIS_SET/BAS
 GLOBAL| Potential file name            /home/wyin/bozai/Bootstrap/BASIS_SET/GTH
 GLOBAL| MM Potential file name                                     MM_POTENTIAL
 GLOBAL| Coordinate file name                                      __STD_INPUT__
 GLOBAL| Force Environment number                                              3
 GLOBAL| Basis set file name            /home/wyin/bozai/Bootstrap/BASIS_SET/BAS
 GLOBAL| Potential file name            /home/wyin/bozai/Bootstrap/BASIS_SET/GTH
 GLOBAL| MM Potential file name                                     MM_POTENTIAL
 GLOBAL| Coordinate file name                                      __STD_INPUT__
 GLOBAL| Method name                                                        CP2K
 GLOBAL| Project name                                                    PROJECT
 GLOBAL| Run type                                                         ENERGY
 GLOBAL| FFT library                                                       FFTW3
 GLOBAL| Diagonalization library                                            ELPA
 GLOBAL| Minimum number of eigenvectors for ELPA usage                        16
 GLOBAL| Orthonormality check for eigenvectors                          DISABLED
 GLOBAL| Matrix multiplication library                                 ScaLAPACK
 GLOBAL| All-to-all communication in single precision                          F
 GLOBAL| FFTs using library dependent lengths                                  F
 GLOBAL| Grid backend                                                       AUTO
 GLOBAL| Global print level                                               MEDIUM
 GLOBAL| MPI I/O enabled                                                       T
 GLOBAL| Total number of message passing processes                            40
 GLOBAL| Number of threads for this process                                    1
 GLOBAL| This output is from process                                           0
 GLOBAL| Stack size for threads created by OpenMP (OMP_STACKSIZE)        default
 GLOBAL| CPU model name                Intel(R) Xeon(R) CPU E5-2640 v4 @ 2.40GHz
 GLOBAL| CPUID                                                              1002
 GLOBAL| Compiled for CPUID                                                 1001

 *** HINT in environment.F:869 :: The compiler target flags (x86_avx) used ***
 *** to build this binary cannot exploit all extensions of this CPU model  ***
 *** (x86_avx2). Consider compiler target flags as part of FCFLAGS and     ***
 *** CFLAGS (ARCH file).                                                   ***


 MEMORY| system memory details [Kb]
 MEMORY|                        rank 0           min           max       average
 MEMORY| MemTotal            131745360     131745360     131745444     131745402
 MEMORY| MemFree             126815516     126815516     126816908     126816212
 MEMORY| Buffers                 17476         17476         18504         17990
 MEMORY| Cached                 352412        349688        352412        351050
 MEMORY| Slab                   131940        131940        134960        133450
 MEMORY| SReclaimable            43212         43212         43480         43346
 MEMORY| MemLikelyFree       127228616     127228580     127228616     127228598


 *** Fundamental physical constants (SI units) ***

 *** Literature: B. J. Mohr and B. N. Taylor,
 ***             CODATA recommended values of the fundamental physical
 ***             constants: 2006, Web Version 5.1
 ***             http://physics.nist.gov/constants

 Speed of light in vacuum [m/s]                             2.99792458000000E+08
 Magnetic constant or permeability of vacuum [N/A**2]       1.25663706143592E-06
 Electric constant or permittivity of vacuum [F/m]          8.85418781762039E-12
 Planck constant (h) [J*s]                                  6.62606896000000E-34
 Planck constant (h-bar) [J*s]                              1.05457162825177E-34
 Elementary charge [C]                                      1.60217648700000E-19
 Electron mass [kg]                                         9.10938215000000E-31
 Electron g factor [ ]                                     -2.00231930436220E+00
 Proton mass [kg]                                           1.67262163700000E-27
 Fine-structure constant                                    7.29735253760000E-03
 Rydberg constant [1/m]                                     1.09737315685270E+07
 Avogadro constant [1/mol]                                  6.02214179000000E+23
 Boltzmann constant [J/K]                                   1.38065040000000E-23
 Atomic mass unit [kg]                                      1.66053878200000E-27
 Bohr radius [m]                                            5.29177208590000E-11

 *** Conversion factors ***

 [u] -> [a.u.]                                              1.82288848426455E+03
 [Angstrom] -> [Bohr] = [a.u.]                              1.88972613288564E+00
 [a.u.] = [Bohr] -> [Angstrom]                              5.29177208590000E-01
 [a.u.] -> [s]                                              2.41888432650478E-17
 [a.u.] -> [fs]                                             2.41888432650478E-02
 [a.u.] -> [J]                                              4.35974393937059E-18
 [a.u.] -> [N]                                              8.23872205491840E-08
 [a.u.] -> [K]                                              3.15774647902944E+05
 [a.u.] -> [kJ/mol]                                         2.62549961709828E+03
 [a.u.] -> [kcal/mol]                                       6.27509468713739E+02
 [a.u.] -> [Pa]                                             2.94210107994716E+13
 [a.u.] -> [bar]                                            2.94210107994716E+08
 [a.u.] -> [atm]                                            2.90362800883016E+08
 [a.u.] -> [eV]                                             2.72113838565563E+01
 [a.u.] -> [Hz]                                             6.57968392072181E+15
 [a.u.] -> [1/cm] (wave numbers)                            2.19474631370540E+05
 [a.u./Bohr**2] -> [1/cm]                                   5.14048714338585E+03
 
 MIXED_ENV| Number of created MPI groups:                                      1
 MIXED_ENV| Task to group correspondence:
  (   0 :    0)  (   1 :    0)  (   2 :    0)  (   3 :    0)
  (   4 :    0)  (   5 :    0)  (   6 :    0)  (   7 :    0)
  (   8 :    0)  (   9 :    0)  (  10 :    0)  (  11 :    0)
  (  12 :    0)  (  13 :    0)  (  14 :    0)  (  15 :    0)
  (  16 :    0)  (  17 :    0)  (  18 :    0)  (  19 :    0)
  (  20 :    0)  (  21 :    0)  (  22 :    0)  (  23 :    0)
  (  24 :    0)  (  25 :    0)  (  26 :    0)  (  27 :    0)
  (  28 :    0)  (  29 :    0)  (  30 :    0)  (  31 :    0)
  (  32 :    0)  (  33 :    0)  (  34 :    0)  (  35 :    0)
  (  36 :    0)  (  37 :    0)  (  38 :    0)  (  39 :    0)

 CELL_TOP| Volume [angstrom^3]:                                      2911.992402
 CELL_TOP| Vector a [angstrom    13.911     0.000     0.000   |a| =    13.910500
 CELL_TOP| Vector b [angstrom     0.000    13.911     0.000   |b| =    13.910500
 CELL_TOP| Vector c [angstrom     0.000     0.000    15.049   |c| =    15.048900
 CELL_TOP| Angle (b,c), alpha [degree]:                                90.000000
 CELL_TOP| Angle (a,c), beta  [degree]:                                90.000000
 CELL_TOP| Angle (a,b), gamma [degree]:                                90.000000
 CELL_TOP| Numerically orthorhombic:                                         YES
 
 GENERATE|  Preliminary Number of Bonds generated:                             0
 GENERATE|  Achieved consistency in connectivity generation.

 CELL| Volume [angstrom^3]:                                          2911.992402
 CELL| Vector a [angstrom]:      13.911     0.000     0.000   |a| =    13.910500
 CELL| Vector b [angstrom]:       0.000    13.911     0.000   |b| =    13.910500
 CELL| Vector c [angstrom]:       0.000     0.000    15.049   |c| =    15.048900
 CELL| Angle (b,c), alpha [degree]:                                    90.000000
 CELL| Angle (a,c), beta  [degree]:                                    90.000000
 CELL| Angle (a,b), gamma [degree]:                                    90.000000
 CELL| Numerically orthorhombic:                                             YES

 CELL_REF| Volume [angstrom^3]:                                      2911.992402
 CELL_REF| Vector a [angstrom    13.911     0.000     0.000   |a| =    13.910500
 CELL_REF| Vector b [angstrom     0.000    13.911     0.000   |b| =    13.910500
 CELL_REF| Vector c [angstrom     0.000     0.000    15.049   |c| =    15.048900
 CELL_REF| Angle (b,c), alpha [degree]:                                90.000000
 CELL_REF| Angle (a,c), beta  [degree]:                                90.000000
 CELL_REF| Angle (a,b), gamma [degree]:                                90.000000
 CELL_REF| Numerically orthorhombic:                                         YES


 MOLECULE KIND INFORMATION


 All atoms are their own molecule, skipping detailed information
 
 MIXED_CDFT| Activating mixed CDFT calculation
 MIXED_CDFT| Number of CDFT states:                                            2
 MIXED_CDFT| CDFT states calculation mode: serial
 MIXED_CDFT| The constraints are separately built for all CDFT states
 MIXED_CDFT| Calculating electronic coupling between states:                   T
 MIXED_CDFT| Calculating electronic coupling reliability metric:               F
 MIXED_CDFT| Configuration interaction (CDFT-CI) was requested:                F
 MIXED_CDFT| Block diagonalizing the mixed CDFT Hamiltonian:                   F
 MIXED_CDFT| Matrix inversions calculated with LU decomposition.

  ------------------------- CDFT coupling information --------------------------
  Information at step (fs):                                                 0.00

  ############################################
  ###### CDFT states I =  1 and J =   2 ######
  ############################################
  Atomic group:                                                                1
  Strength of constraint I:                                      -0.061809155127
  Strength of constraint J:                                      -0.062403697939
  Final value of constraint I:                                    1.000456473365
  Final value of constraint J:                                    1.000416541291

  Overlap between states I and J:                                 0.510026184891
  Charge transfer energy (J-I) (Hartree):                         0.000209212689
 
  Diabatic electronic coupling (Lowdin, mHartree):               23.143773776610
  ------------------------------------------------------------------------------
 NO FORCE_EVAL section calculated the dipole

 ENERGY| Total FORCE_EVAL ( MIXED ) energy [a.u.]:         -8123.901543981859504

 -------------------------------------------------------------------------------
 -                                                                             -
 -                                DBCSR STATISTICS                             -
 -                                                                             -
 -------------------------------------------------------------------------------
 COUNTER                                    TOTAL       BLAS       SMM       ACC
 flops  1152 x   120 x   232            192430080       0.0%    100.0%      0.0%
 flops  1160 x   120 x   232            193766400       0.0%    100.0%      0.0%
 flops  1152 x   121 x   232            194033664       0.0%    100.0%      0.0%
 flops  1160 x   121 x   232            195381120       0.0%    100.0%      0.0%
 flops  1184 x   120 x   232            395550720       0.0%    100.0%      0.0%
 flops  1184 x   121 x   232            398846976       0.0%    100.0%      0.0%
 flops  1152 x   128 x   232           1231552512       0.0%    100.0%      0.0%
 flops  1160 x   128 x   232           1240104960       0.0%    100.0%      0.0%
 flops  1152 x   120 x   256           1274019840       0.0%    100.0%      0.0%
 flops  1160 x   120 x   256           1282867200       0.0%    100.0%      0.0%
 flops  1152 x   121 x   256           1284636672       0.0%    100.0%      0.0%
 flops  1160 x   121 x   256           1293557760       0.0%    100.0%      0.0%
 flops  1152 x    96 x   232           1847328768       0.0%    100.0%      0.0%
 flops  1160 x    96 x   232           1860157440       0.0%    100.0%      0.0%
 flops  1152 x   120 x   224           2415329280       0.0%    100.0%      0.0%
 flops  1160 x   120 x   224           2432102400       0.0%    100.0%      0.0%
 flops  1152 x   121 x   224           2435457024       0.0%    100.0%      0.0%
 flops  1160 x   121 x   224           2452369920       0.0%    100.0%      0.0%
 flops  1184 x   128 x   232           2531524608       0.0%    100.0%      0.0%
 flops  1184 x   120 x   256           2618818560       0.0%    100.0%      0.0%
 flops  1184 x   121 x   256           2640642048       0.0%    100.0%      0.0%
 flops   281 x   121 x    57           3178413480       0.0%    100.0%      0.0%
 flops   288 x   121 x    57           3257591040       0.0%    100.0%      0.0%
 flops  1184 x    96 x   232           3797286912       0.0%    100.0%      0.0%
 flops   280 x   120 x    56           4365312000       0.0%    100.0%      0.0%
 flops   288 x   120 x    56           4490035200       0.0%    100.0%      0.0%
 flops  1184 x   120 x   224           4964843520       0.0%    100.0%      0.0%
 flops  1184 x   121 x   224           5006217216       0.0%    100.0%      0.0%
 flops   256 x   121 x    57           5791272960       0.0%    100.0%      0.0%
 flops   256 x   120 x    56           7982284800       0.0%    100.0%      0.0%
 flops  1152 x   128 x   256           8153726976       0.0%    100.0%      0.0%
 flops  1160 x   128 x   256           8210350080       0.0%    100.0%      0.0%
 flops   281 x   128 x    57          10086865920       0.0%    100.0%      0.0%
 flops   288 x   128 x    57          10338140160       0.0%    100.0%      0.0%
 flops   281 x   121 x    32          10706234880       0.0%    100.0%      0.0%
 flops   288 x   121 x    32          10972938240       0.0%    100.0%      0.0%
 flops  1152 x    96 x   256          12230590464       0.0%    100.0%      0.0%
 flops  1160 x    96 x   256          12315525120       0.0%    100.0%      0.0%
 flops   280 x   128 x    56          13968998400       0.0%    100.0%      0.0%
 flops   288 x   128 x    56          14368112640       0.0%    100.0%      0.0%
 flops   280 x   120 x    32          14966784000       0.0%    100.0%      0.0%
 flops   281 x    96 x    57          15130298880       0.0%    100.0%      0.0%
 flops   288 x   120 x    32          15394406400       0.0%    100.0%      0.0%
 flops  1152 x   128 x   224          15458107392       0.0%    100.0%      0.0%
 flops   288 x    96 x    57          15507210240       0.0%    100.0%      0.0%
 flops  1160 x   128 x   224          15565455360       0.0%    100.0%      0.0%
 flops  1184 x   128 x   256          16760438784       0.0%    100.0%      0.0%
 flops   256 x   128 x    57          18378915840       0.0%    100.0%      0.0%
 flops   256 x   121 x    32          19507445760       0.0%    100.0%      0.0%
 flops   280 x    96 x    56          20953497600       0.0%    100.0%      0.0%
 flops   288 x    96 x    56          21552168960       0.0%    100.0%      0.0%
 flops  1152 x    96 x   224          23187161088       0.0%    100.0%      0.0%
 flops  1160 x    96 x   224          23348183040       0.0%    100.0%      0.0%
 flops  1184 x    96 x   256          25140658176       0.0%    100.0%      0.0%
 flops   256 x   128 x    56          25543311360       0.0%    100.0%      0.0%
 flops   256 x   120 x    32          27367833600       0.0%    100.0%      0.0%
 flops   256 x    96 x    57          27568373760       0.0%    100.0%      0.0%
 flops  1184 x   128 x   224          31774998528       0.0%    100.0%      0.0%
 flops   281 x   128 x    32          33976811520       0.0%    100.0%      0.0%
 flops  1170 x   121 x    57          35957647440       0.0%    100.0%      0.0%
 flops   256 x    96 x    56          38314967040       0.0%    100.0%      0.0%
 flops  1170 x   120 x    56          43148851200       0.0%    100.0%      0.0%
 flops   281 x   121 x    64          46393684480       0.0%    100.0%      0.0%
 flops   288 x   121 x    64          47549399040       0.0%    100.0%      0.0%
 flops  1184 x    96 x   224          47662497792       0.0%    100.0%      0.0%
 flops   280 x   128 x    32          47893708800       0.0%    100.0%      0.0%
 flops   281 x    96 x    32          50965217280       0.0%    100.0%      0.0%
 flops   280 x   120 x   221          61216646400       0.0%    100.0%      0.0%
 flops   281 x   121 x   221          61947237924       0.0%    100.0%      0.0%
 flops   288 x   120 x   221          62965693440       0.0%    100.0%      0.0%
 flops   288 x   121 x   221          63490407552       0.0%    100.0%      0.0%
 flops   280 x   120 x    64          64856064000       0.0%    100.0%      0.0%
 flops   288 x   120 x    64          66709094400       0.0%    100.0%      0.0%
 flops   280 x   120 x   247          68418604800       0.0%    100.0%      0.0%
 flops   281 x   121 x   247          69235148268       0.0%    100.0%      0.0%
 flops   288 x   120 x   247          70373422080       0.0%    100.0%      0.0%
 flops   288 x   121 x   247          70959867264       0.0%    100.0%      0.0%
 flops   280 x    96 x    32          71840563200       0.0%    100.0%      0.0%
 flops    13 x     8 x    13          73888963200       0.0%    100.0%      0.0%
 flops    26 x     8 x    13          77096448000       0.0%    100.0%      0.0%
 flops    13 x     8 x    26          77096448000       0.0%    100.0%      0.0%
 flops    26 x     8 x    26          77534496000       0.0%    100.0%      0.0%
 flops   288 x   128 x    32          84085309440       0.0%    100.0%      0.0%
 flops   256 x   121 x    64          84532264960       0.0%    100.0%      0.0%
 flops   280 x   120 x   234          86423500800       0.0%    100.0%      0.0%
 flops   281 x   121 x   234          87454924128       0.0%    100.0%      0.0%
 flops   288 x   120 x   234          88892743680       0.0%    100.0%      0.0%
 flops   288 x   121 x   234          89633516544       0.0%    100.0%      0.0%
 flops   256 x   120 x   221         111939010560       0.0%    100.0%      0.0%
 flops   256 x   121 x   221         112871835648       0.0%    100.0%      0.0%
 flops  1170 x   128 x    57         114113525760       0.0%    100.0%      0.0%
 flops   256 x   120 x    64         118593945600       0.0%    100.0%      0.0%
 flops  1170 x   121 x    32         121120496640       0.0%    100.0%      0.0%
 flops   256 x   120 x   247         125108305920       0.0%    100.0%      0.0%
 flops   288 x    96 x    32         126127964160       0.0%    100.0%      0.0%
 flops   256 x   121 x   247         126150875136       0.0%    100.0%      0.0%
 flops    13 x    13 x    56         130261360320       0.0%    100.0%      0.0%
 flops    13 x    13 x    57         132587456040       0.0%    100.0%      0.0%
 flops    26 x    13 x    56         135532051200       0.0%    100.0%      0.0%
 flops    13 x    26 x    56         135532051200       0.0%    100.0%      0.0%
 flops    26 x    26 x    56         137037962880       0.0%    100.0%      0.0%
 flops    26 x    13 x    57         137952266400       0.0%    100.0%      0.0%
 flops    13 x    26 x    57         137952266400       0.0%    100.0%      0.0%
 flops  1170 x   128 x    56         138076323840       0.0%    100.0%      0.0%
 flops    26 x    26 x    57         139485069360       0.0%    100.0%      0.0%
 flops   281 x   128 x    64         147232849920       0.0%    100.0%      0.0%
 flops  1170 x   120 x    32         147938918400       0.0%    100.0%      0.0%
 flops   256 x   128 x    32         149484994560       0.0%    100.0%      0.0%
 flops   256 x   120 x   234         158031544320       0.0%    100.0%      0.0%
 flops   256 x   121 x   234         159348473856       0.0%    100.0%      0.0%
 flops  1170 x    96 x    57         171170288640       0.0%    100.0%      0.0%
 flops    13 x    24 x    13         181830804480       0.0%    100.0%      0.0%
 flops    13 x    25 x    13         188883864000       0.0%    100.0%      0.0%
 flops    26 x    24 x    26         190288051200       0.0%    100.0%      0.0%
 flops    26 x    24 x    13         190288051200       0.0%    100.0%      0.0%
 flops    13 x    24 x    26         190288051200       0.0%    100.0%      0.0%
 flops   280 x   128 x   221         195893268480       0.0%    100.0%      0.0%
 flops   281 x   128 x   221         196592887296       0.0%    100.0%      0.0%
 flops    26 x    25 x    26         197669160000       0.0%    100.0%      0.0%
 flops    26 x    25 x    13         197669160000       0.0%    100.0%      0.0%
 flops    13 x    25 x    26         197669160000       0.0%    100.0%      0.0%
 flops  1170 x    96 x    56         207114485760       0.0%    100.0%      0.0%
 flops   280 x   128 x    64         207539404800       0.0%    100.0%      0.0%
 flops   280 x   128 x   247         218939535360       0.0%    100.0%      0.0%
 flops   281 x   128 x   247         219721462272       0.0%    100.0%      0.0%
 flops   281 x    96 x    64         220849274880       0.0%    100.0%      0.0%
 flops   256 x    96 x    32         224227491840       0.0%    100.0%      0.0%
 flops   280 x   128 x   234         276555202560       0.0%    100.0%      0.0%
 flops   281 x   128 x   234         277542899712       0.0%    100.0%      0.0%
 flops   280 x    96 x   221         293839902720       0.0%    100.0%      0.0%
 flops   281 x    96 x   221         294889330944       0.0%    100.0%      0.0%
 flops   280 x    96 x    64         311309107200       0.0%    100.0%      0.0%
 flops   280 x    96 x   247         328409303040       0.0%    100.0%      0.0%
 flops   281 x    96 x   247         329582193408       0.0%    100.0%      0.0%
 flops   288 x   128 x    64         364369674240       0.0%    100.0%      0.0%
 flops   288 x   128 x   221         402980438016       0.0%    100.0%      0.0%
 flops   280 x    96 x   234         414832803840       0.0%    100.0%      0.0%
 flops   281 x    96 x   234         416314349568       0.0%    100.0%      0.0%
 flops   288 x   128 x   247         450389901312       0.0%    100.0%      0.0%
 flops  1170 x   121 x    64         524855485440       0.0%    100.0%      0.0%
 flops   288 x    96 x    64         546554511360       0.0%    100.0%      0.0%
 flops    13 x    13 x   232         549421704000       0.0%    100.0%      0.0%
 flops   288 x   128 x   234         568913559552       0.0%    100.0%      0.0%
 flops    26 x    13 x   232         571652640000       0.0%    100.0%      0.0%
 flops    13 x    26 x   232         571652640000       0.0%    100.0%      0.0%
 flops    26 x    26 x   232         578004336000       0.0%    100.0%      0.0%
 flops   288 x    96 x   221         604470657024       0.0%    100.0%      0.0%
 flops  1170 x   120 x    64         641068646400       0.0%    100.0%      0.0%
 flops   256 x   128 x    64         647768309760       0.0%    100.0%      0.0%
 flops  1170 x   120 x   221         670213440000       0.0%    100.0%      0.0%
 flops   288 x    96 x   247         675584851968       0.0%    100.0%      0.0%
 flops  1170 x   121 x   221         675798552000       0.0%    100.0%      0.0%
 flops   256 x   128 x   221         716409667584       0.0%    100.0%      0.0%
 flops  1170 x   120 x   247         749062080000       0.0%    100.0%      0.0%
 flops  1170 x   121 x   247         755304264000       0.0%    100.0%      0.0%
 flops   256 x   128 x   247         800693157888       0.0%    100.0%      0.0%
 flops   288 x    96 x   234         853370339328       0.0%    100.0%      0.0%
 flops  1170 x   128 x    32         857786941440       0.0%    100.0%      0.0%
 flops    13 x    13 x    32         893220756480       0.0%    100.0%      0.0%
 flops    26 x    13 x    32         929362636800       0.0%    100.0%      0.0%
 flops    13 x    26 x    32         929362636800       0.0%    100.0%      0.0%
 flops    26 x    26 x    32         939688888320       0.0%    100.0%      0.0%
 flops  1170 x   120 x   234         946183680000       0.0%    100.0%      0.0%
 flops  1170 x   121 x   234         954068544000       0.0%    100.0%      0.0%
 flops   256 x    96 x    64         971652464640       0.0%    100.0%      0.0%
 flops   256 x   128 x   234        1011401883648       0.0%    100.0%      0.0%
 flops   256 x    96 x   221        1074614501376       0.0%    100.0%      0.0%
 flops   256 x    96 x   247        1201039736832       0.0%    100.0%      0.0%
 flops  1170 x    96 x    32        1286680412160       0.0%    100.0%      0.0%
 flops   256 x    96 x   234        1517102825472       0.0%    100.0%      0.0%
 flops    13 x    13 x   256        3637550592000       0.0%    100.0%      0.0%
 flops  1170 x   128 x    64        3717076746240       0.0%    100.0%      0.0%
 flops    26 x    13 x   256        3784734720000       0.0%    100.0%      0.0%
 flops    13 x    26 x   256        3784734720000       0.0%    100.0%      0.0%
 flops    26 x    26 x   256        3826787328000       0.0%    100.0%      0.0%
 flops    13 x    13 x    64        3870623278080       0.0%    100.0%      0.0%
 flops    26 x    13 x    64        4027238092800       0.0%    100.0%      0.0%
 flops    13 x    26 x    64        4027238092800       0.0%    100.0%      0.0%
 flops    26 x    26 x    64        4071985182720       0.0%    100.0%      0.0%
 flops  1170 x   128 x   221        4289366016000       0.0%    100.0%      0.0%
 flops  1170 x   128 x   247        4793997312000       0.0%    100.0%      0.0%
 flops  1170 x    96 x    64        5575615119360       0.0%    100.0%      0.0%
 flops  1170 x   128 x   234        6055575552000       0.0%    100.0%      0.0%
 flops  1170 x    96 x   221        6434049024000       0.0%    100.0%      0.0%
 flops    13 x    13 x   224        6896189664000       0.0%    100.0%      0.0%
 flops    26 x    13 x   224        7175226240000       0.0%    100.0%      0.0%
 flops    13 x    26 x   224        7175226240000       0.0%    100.0%      0.0%
 flops  1170 x    96 x   247        7190995968000       0.0%    100.0%      0.0%
 flops    26 x    26 x   224        7254950976000       0.0%    100.0%      0.0%
 flops  1170 x    96 x   234        9083363328000       0.0%    100.0%      0.0%
 flops    13 x    32 x    13       59130164321280       0.0%    100.0%      0.0%
 flops    26 x    32 x    13       61746545203200       0.0%    100.0%      0.0%
 flops    13 x    32 x    26       61746545203200       0.0%    100.0%      0.0%
 flops    26 x    32 x    26       62002365235200       0.0%    100.0%      0.0%
 flops inhomo. stacks                           0       0.0%      0.0%      0.0%
 flops total                       389.519453E+12       0.0%    100.0%      0.0%
 flops max/rank                     10.588621E+12       0.0%    100.0%      0.0%
 matmuls inhomo. stacks                         0       0.0%      0.0%      0.0%
 matmuls total                        13736466140       0.0%    100.0%      0.0%
 number of processed stacks              26301592       0.0%    100.0%      0.0%
 average stack size                                     0.0     522.3       0.0
 marketing flops                   551.668316E+12
 -------------------------------------------------------------------------------
 # multiplications                           9613
 max memory usage/rank               1.208111E+09
 # max total images/rank                        5
 # max 3D layers                                1
 # MPI messages exchanged                12689160
 MPI messages size (bytes):
  total size                         8.797012E+12
  min size                           0.000000E+00
  max size                           2.424832E+06
  average size                     693.269812E+03
 MPI breakdown and total messages size (bytes):
             size <=      128              182250                        0
       128 < size <=     8192               44550                219024000
      8192 < size <=    32768              644940              17617553136
     32768 < size <=   131072             2500080             192499698312
    131072 < size <=  4194304             9317340            8584771731840
   4194304 < size <= 16777216                   0                        0
  16777216 < size                               0                        0
 -------------------------------------------------------------------------------

 *** WARNING in dbcsr_mm.F:290 :: Using a non-square number of MPI ranks ***
 *** might lead to poor performance. Used ranks: 40 Suggested: 36 81     ***

 -------------------------------------------------------------------------------
 -                                                                             -
 -                      DBCSR MESSAGE PASSING PERFORMANCE                      -
 -                                                                             -
 -------------------------------------------------------------------------------
 ROUTINE             CALLS      AVE VOLUME [Bytes]
 MP_Bcast              195                     12.
 MP_Allreduce        49206                    247.
 MP_Alltoall         85745                 952043.
 MP_ISend           722204                 334754.
 MP_IRecv           718648                 331904.
 -------------------------------------------------------------------------------

 -------------------------------------------------------------------------------
 -                                                                             -
 -                                DBM STATISTICS                               -
 -                                                                             -
 -------------------------------------------------------------------------------
    M  x    N  x    K                                          COUNT     PERCENT
 -------------------------------------------------------------------------------

 -------------------------------------------------------------------------------
 -                                                                             -
 -                                GRID STATISTICS                              -
 -                                                                             -
 -------------------------------------------------------------------------------
 LP    KERNEL             BACKEND                              COUNT     PERCENT
 5     collocate ortho    REF                              205583040      33.77%
 5     integrate ortho    REF                              105117120      17.27%
 6     collocate ortho    REF                              104621400      17.18%
 4     collocate ortho    REF                               92448720      15.19%
 6     integrate ortho    REF                               53494200       8.79%
 4     integrate ortho    REF                               47270160       7.76%
 0     collocate general  REF                                 217280       0.04%
 0     integrate general  REF                                  43200       0.01%
 -------------------------------------------------------------------------------

 MEMORY| Estimated peak process memory [MiB]                                1150

 -------------------------------------------------------------------------------
 -                                                                             -
 -                         MESSAGE PASSING PERFORMANCE                         -
 -                                                                             -
 -------------------------------------------------------------------------------

 ROUTINE             CALLS      AVE VOLUME [Bytes]
 MP_Group               10
 MP_Bcast             5075                 139897.
 MP_Allreduce         9482                    296.
 MP_Sync               123
 MP_Alltoall          9159                9288975.
 MP_SendRecv         10640                 552960.
 MP_ISendRecv       156312                  26640.
 MP_Wait            290605
 MP_comm_split          45
 MP_ISend           123577                 296509.
 MP_IRecv           123577                 296509.
 MP_Recv              1782                1198080.
 MP_Write_All            4                 202240.
 -------------------------------------------------------------------------------


 -------------------------------------------------------------------------------
 -                                                                             -
 -                           R E F E R E N C E S                               -
 -                                                                             -
 -------------------------------------------------------------------------------
 
 CP2K version 2022.1, the CP2K developers group (2022).
 CP2K is freely available from https://www.cp2k.org/ .

 Kuehne,Thomas D.; Iannuzzi,Marcella; Del Ben,Mauro;
 Rybkin,Vladimir V.; Seewald,Patrick; Stein,Frederick; Laino,Teodoro;
 Khaliullin,Rustam Z.; Schuett,Ole; Schiffmann,Florian; Golze,Dorothea;
 Wilhelm,Jan; Chulkov,Sergey; Bani-Hashemian,Mohammad Hossein;
 Weber,Valery; Borstnik,Urban; Taillefumier,Mathieu;
 Jakobovits,Alice Shoshana; Lazzaro,Alfio; Pabst,Hans; Mueller,Tiziano;
 Schade,Robert; Guidon,Manuel; Andermatt,Samuel; Holmberg,Nico;
 Schenter,Gregory K.; Hehn,Anna; Bussy,Augustin; Belleflamme,Fabian;
 Tabacchi,Gloria; Gloess,Andreas; Lass,Michael; Bethune,Iain;
 Mundy,Christopher J.; Plessl,Christian; Watkins,Matt;
 VandeVondele,Joost; Krack,Matthias; Hutter,Juerg. 
 The Journal of Chemical Physics, 152 (19), (2020). 
 CP2K: An electronic structure and molecular dynamics software package -
 Quickstep: Efficient and accurate electronic structure calculations.
 https://doi.org/10.1063/5.0007045

 Holmberg, Nico; Laasonen, Kari. 
 The Journal of Chemical Physics, 149 (10), 104702 (2018). 
 Diabatic model for electrochemical hydrogen evolution based on
 constrained DFT
 configuration interaction.
 https://doi.org/10.1063/1.5038959

 Holmberg, N; Laasonen, K. 
 Journal of Chemical Theory and Computation, 13 (2), (2017). 
 Efficient Constrained Density Functional Theory Implementation for
 Simulation of Condensed Phase Electron Transfer Reactions.
 https://doi.org/10.1021/acs.jctc.6b01085

 Goerigk, Lars; Hansen, Andreas; Bauer, Christoph; Ehrlich, Stephan;
 Najibi, Asim; Grimme, Stefan. , 19 (48), (2017). 
 A look at the density functional theory zoo with the advanced GMTKN55 database
 for general main group thermochemistry, kinetics and noncovalent interactions.
 https://doi.org/10.1039/C7CP04913G

 Schuett, Ole; Messmer, Peter; Hutter, Juerg; VandeVondele, Joost. 
 Electronic Structure Calculations on Graphics Processing Units, John
 Wiley & Sons, Ltd, 173-190 (2016). 
 GPU-Accelerated Sparse Matrix-Matrix Multiplication for
 Linear Scaling Density Functional Theory.
 https://doi.org/10.1002/9781118670712.ch8

 Heinecke, A; Henry, G; Hutchinson, M; Pabst, H. 
 Proceedings of Intl. Supercomputing Conference, 981-991 (2016). 
 LIBXSMM: Accelerating Small Matrix Multiplications
 by Runtime Code Generation.
 https://doi.org/10.1109/SC.2016.83

 Borstnik, U; VandeVondele, J; Weber, V; Hutter, J. 
 PARALLEL COMPUTING, 40 (5-6), 47-58 (2014). 
 Sparse matrix multiplication: The distributed block-compressed sparse
 row library.
 https://doi.org/10.1016/j.parco.2014.03.012

 Hutter, J; Iannuzzi, M; Schiffmann, F; VandeVondele, J. 
 WIREs Comput Mol Sci., 4 (1), 15-25 (2014). 
 CP2K: atomistic simulations of condensed matter systems.
 https://doi.org/10.1002/wcms.1159

 Marek, A; Blum, V; Johanni, R; Havu, V; Lang, B; Auckenthaler, T;
 Heinecke, A; Bungartz, H; Lederer, H. 
 Journal of Physics: Condensed Matter, 26 (21), (2014). 
 The ELPA library: scalable parallel eigenvalue solutions for
 electronic structure
 theory and computational science.
 https://doi.org/10.1088/0953-8984/26/21/213201

 Grimme, S; Ehrlich, S; Goerigk, L. 
 JOURNAL OF COMPUTATIONAL CHEMISTRY, 32, 1456 (2011). 
 Effect of the damping function in dispersion corrected density functional theory.
 https://doi.org/10.1002/jcc.21759

 Grimme, S; Antony, J; Ehrlich, S; Krieg, H. 
 JOURNAL OF CHEMICAL PHYSICS, 132 (15), 154104 (2010). 
 A consistent and accurate ab initio parametrization of density
 functional dispersion correction (DFT-D) for the 94 elements H-Pu.
 https://doi.org/10.1063/1.3382344

 Weber, V; VandeVondele, J; Hutter, J; Niklasson, AMN. 
 JOURNAL OF CHEMICAL PHYSICS, 128 (8), 084113 (2008). 
 Direct energy functional minimization under orthogonality constraints.
 https://doi.org/10.1063/1.2841077

 VandeVondele, J; Hutter, J. 
 JOURNAL OF CHEMICAL PHYSICS, 127 (11), 114105 (2007). 
 Gaussian basis sets for accurate calculations on molecular systems in
 gas and condensed phases.
 https://doi.org/10.1063/1.2770708

 Krack, M. 
 THEORETICAL CHEMISTRY ACCOUNTS, 114 (1-3), 145-152 (2005). 
 Pseudopotentials for H to Kr optimized for gradient-corrected
 exchange-correlation functionals.
 https://doi.org/10.1007/s00214-005-0655-y

 VandeVondele, J; Krack, M; Mohamed, F; Parrinello, M; Chassaing, T;
 Hutter, J. COMPUTER PHYSICS COMMUNICATIONS, 167 (2), 103-128 (2005). 
 QUICKSTEP: Fast and accurate density functional calculations using a
 mixed Gaussian and plane waves approach.
 https://doi.org/10.1016/j.cpc.2004.12.014

 Frigo, M; Johnson, SG. 
 PROCEEDINGS OF THE IEEE, 93 (2), 216-231 (2005). 
 The design and implementation of FFTW3.
 https://doi.org/10.1109/JPROC.2004.840301

 VandeVondele, J; Hutter, J. 
 JOURNAL OF CHEMICAL PHYSICS, 118 (10), 4365-4369 (2003). 
 An efficient orbital transformation method for electronic structure
 calculations.
 https://doi.org/10.1063/1.1543154

 Hartwigsen, C; Goedecker, S; Hutter, J. 
 PHYSICAL REVIEW B, 58 (7), 3641-3662 (1998). 
 Relativistic separable dual-space Gaussian pseudopotentials from H to Rn.
 https://doi.org/10.1103/PhysRevB.58.3641

 Dudarev, SL; Botton, GA; Savrasov, SY; Humphreys, CJ; Sutton, AP. 
 PHYSICAL REVIEW B, 57 (3), 1505-1509 (1998). 
 Electron-energy-loss spectra and the structural stability of
 nickel oxide: An LSDA+U study.
 https://doi.org/10.1103/PhysRevB.57.1505

 Lippert, G; Hutter, J; Parrinello, M. 
 MOLECULAR PHYSICS, 92 (3), 477-487 (1997). 
 A hybrid Gaussian and plane wave density functional scheme.
 https://doi.org/10.1080/002689797170220

 Dudarev, SL; Manh, DN; Sutton, AP. 
 PHILOSOPHICAL MAGAZINE B, 75 (5), 613-628 (1997). 
 Effect of Mott-Hubbard correlations on the electronic
 structure and structural stability of uranium dioxide.
 https://doi.org/10.1080/13642819708202343

 Perdew, JP; Burke, K; Ernzerhof, M. 
 PHYSICAL REVIEW LETTERS, 77 (18), 3865-3868 (1996). 
 Generalized gradient approximation made simple.
 https://doi.org/10.1103/PhysRevLett.77.3865

 Goedecker, S; Teter, M; Hutter, J. 
 PHYSICAL REVIEW B, 54 (3), 1703-1710 (1996). 
 Separable dual-space Gaussian pseudopotentials.
 https://doi.org/10.1103/PhysRevB.54.1703


 -------------------------------------------------------------------------------
 -                                                                             -
 -                                T I M I N G                                  -
 -                                                                             -
 -------------------------------------------------------------------------------
 SUBROUTINE                       CALLS  ASD         SELF TIME        TOTAL TIME
                                MAXIMUM       AVERAGE  MAXIMUM  AVERAGE  MAXIMUM
 CP2K                                 1  1.0    0.078    0.087 4469.309 4469.344
 qs_energies                          2  2.0    0.004    0.006 4466.719 4466.754
 cdft_scf_loop                        2  3.0    0.001    0.002 4441.412 4441.447
 scf_env_do_scf                      10  4.0    0.003    0.006 4437.897 4437.932
 scf_env_do_scf_inner_loop          440  5.0    0.010    0.023 4239.199 4246.990
 qs_ks_update_qs_env                451  6.0    0.005    0.005 2287.620 2289.824
 rebuild_ks_matrix                  440  7.0    0.003    0.003 2284.916 2287.122
 qs_ks_build_kohn_sham_matrix       440  8.0    0.093    0.124 2284.913 2287.120
 qs_rho_update_rho_low              442  6.0    0.003    0.004 1572.760 1573.880
 calculate_rho_elec                 884  7.0    1.779    1.835 1572.756 1573.876
 grid_collocate_task_list           884  8.0 1269.948 1308.012 1269.948 1308.012
 plus_u                             440  9.0    0.018    0.024 1225.634 1225.765
 lowdin                             440 10.0    0.222    0.391 1225.616 1225.741
 dbcsr_multiply_generic            9613 11.1    0.762    0.841  957.168  971.213
 multiply_cannon                   9613 12.1    1.293    1.597  771.228  806.574
 multiply_cannon_loop              9613 13.1    3.086    3.253  731.270  764.413
 sum_up_and_integrate               225  9.0    6.918    7.026  755.834  755.951
 integrate_v_rspace                 452 10.0    0.021    0.024  752.414  752.529
 grid_integrate_task_list           452 11.0  602.056  621.966  602.056  621.966
 multiply_cannon_multrec         192260 14.1  571.881  616.751  572.236  617.009
 cp_gemm                           1002 10.7    0.004    0.007  602.577  603.500
 cp_gemm_fm_gemm                   1002 11.7    0.006    0.009  602.572  603.493
 cp_fm_gemm                        1002 12.7  602.566  603.485  602.566  603.485
 cp_dbcsr_sm_fm_multiply           1386 10.9    0.062    0.084  469.317  471.776
 qs_scf_new_mos                     440  6.0    0.003    0.005  468.604  471.667
 qs_scf_loop_do_ot                  440  7.0    0.019    0.032  468.601  471.662
 ot_scf_mini                        440  8.0    0.048    0.075  396.726  398.481
 cp_dbcsr_sm_fm_multiply_core      1386 11.9    0.033    0.059  337.476  346.342
 density_rs2pw                      884  8.0    0.074    0.083  277.071  321.777
 rs_pw_transfer                    6694 10.0    0.082    0.110  204.825  248.529
 qs_ot_get_orbitals_ref             880  9.0    0.019    0.024  233.457  234.344
 pw_transfer                       8671  9.9    0.672    0.813  206.906  208.111
 fft_wrap_pw1pw2                   7791 10.9    0.076    0.090  200.275  201.479
 init_scf_loop                       11  5.0    0.004    0.006  191.350  191.476
 fft_wrap_pw1pw2_400               2447 11.5   23.784   24.122  187.739  190.232
 qs_vxc_create                      440  9.0    0.013    0.017  187.057  187.081
 mp_waitall_1                    859213 14.6  150.435  186.725  150.435  186.725
 ot_mini                            440  9.0    0.004    0.005  162.504  164.619
 cp_dbcsr_plus_fm_fm_t_native       454 11.0    0.023    0.033  149.827  156.834
 fft3d_ps                          7791 12.9   88.956   90.522  141.851  143.613
 rs_pw_transfer_RS2PW_400           894 10.0   36.296   43.089   98.232  142.115
 multiply_cannon_metrocomm3      192260 14.1    0.724    0.779   99.232  135.964
 xc_vxc_pw_create                   225 10.0   21.231   21.539  130.522  130.533
 make_m2s                         19226 12.1    0.726    0.841  126.587  130.423
 mp_waitany                      123528 12.0   79.706  129.359   79.706  129.359
 dbcsr_complete_redistribute       7292 12.7   48.555   52.621  124.883  129.329
 ot_new_cg_direction                225 10.0    0.008    0.009  124.571  124.589
 apply_preconditioner_dbcsr         450 11.0    0.006    0.008  120.775  122.264
 apply_all                          450 12.0    0.119    0.139  120.769  122.259
 xc_rho_set_and_dset_create         440 11.0   13.809   14.071  120.744  121.511
 potential_pw2rs                    452 11.0    0.081    0.084  121.079  121.360
 make_images                      19226 13.1    2.468    2.699  112.072  115.714
 copy_dbcsr_to_fm                  3092 11.7    0.113    0.131  102.942  115.404
 mp_alltoall_d11v                 32497 13.8   87.068  108.713   87.068  108.713
 copy_fm_to_dbcsr                  4200 11.7    0.078    0.106   99.170  104.564
 prepare_preconditioner              11  6.0    0.000    0.000  100.698  100.812
 pw_nn_compose_r                   5320 12.9   83.637   84.333   93.778   94.898
 make_preconditioner                 22  7.0    0.000    0.001   92.430   92.466
 -------------------------------------------------------------------------------

 The number of warnings for this run is : 69
 
 -------------------------------------------------------------------------------
  **** **** ******  **  PROGRAM ENDED AT                 2023-05-25 10:02:35.492
 ***** ** ***  *** **   PROGRAM RAN ON                                    node10
 **    ****   ******    PROGRAM RAN BY                                      wyin
 ***** **    ** ** **   PROGRAM PROCESS ID                                  1886
  **** **  *******  **  PROGRAM STOPPED IN /home/wyin/bozai/job/1-TiO2/1-Bulk/3-
                                           Marcus/3-Hab/1-46-28
