 DBCSR| CPU Multiplication driver                                           XSMM
 DBCSR| Multrec recursion limit                                              512
 DBCSR| Multiplication stack size                                           1000
 DBCSR| Maximum elements for images                                    UNLIMITED
 DBCSR| Multiplicative factor virtual images                                   1
 DBCSR| Use multiplication densification                                       T
 DBCSR| Multiplication size stacks                                             3
 DBCSR| Use memory pool for CPU allocation                                     F
 DBCSR| Number of 3D layers                                               SINGLE
 DBCSR| Use MPI memory allocation                                              F
 DBCSR| Use RMA algorithm                                                      F
 DBCSR| Use Communication thread                                               T
 DBCSR| Communication thread load                                             87
 DBCSR| MPI: My node id                                                        0
 DBCSR| MPI: Number of nodes                                                  40
 DBCSR| OMP: Current number of threads                                         1
 DBCSR| OMP: Max number of threads                                             1
 DBCSR| Split modifier for TAS multiplication algorithm                  1.0E+00


  **** **** ******  **  PROGRAM STARTED AT               2023-05-25 10:26:56.584
 ***** ** ***  *** **   PROGRAM STARTED ON                               node177
 **    ****   ******    PROGRAM STARTED BY                                  wyin
 ***** **    ** ** **   PROGRAM PROCESS ID                                 17820
  **** **  *******  **  PROGRAM STARTED IN /home/wyin/bozai/job/1-TiO2/1-Bulk/3-
                                           Marcus/3-Hab/2-40-71

 CP2K| version string:                                       CP2K version 2022.1
 CP2K| source code revision number:                                  git:2caeb6f
 CP2K| cp2kflags: omp libint fftw3 libxc elpa parallel mpi3 scalapack xsmm plume
 CP2K|            d2 spglib mkl libvori libbqb
 CP2K| is freely available from                            https://www.cp2k.org/
 CP2K| Program compiled at                          Mon Mar 13 16:18:57 CET 2023
 CP2K| Program compiled on                                               login02
 CP2K| Program compiled for                                                local
 CP2K| Data directory path                   /home/wyin/package/cp2k-2022.1/data
 CP2K| Input file name                                                 input.inp
 
 GLOBAL| Force Environment number                                              1
 GLOBAL| Basis set file name                                           BASIS_SET
 GLOBAL| Potential file name                                           POTENTIAL
 GLOBAL| MM Potential file name                                     MM_POTENTIAL
 GLOBAL| Coordinate file name                                           bulk.xyz
 GLOBAL| Force Environment number                                              2
 GLOBAL| Basis set file name            /home/wyin/bozai/Bootstrap/BASIS_SET/BAS
 GLOBAL| Potential file name            /home/wyin/bozai/Bootstrap/BASIS_SET/GTH
 GLOBAL| MM Potential file name                                     MM_POTENTIAL
 GLOBAL| Coordinate file name                                      __STD_INPUT__
 GLOBAL| Force Environment number                                              3
 GLOBAL| Basis set file name            /home/wyin/bozai/Bootstrap/BASIS_SET/BAS
 GLOBAL| Potential file name            /home/wyin/bozai/Bootstrap/BASIS_SET/GTH
 GLOBAL| MM Potential file name                                     MM_POTENTIAL
 GLOBAL| Coordinate file name                                      __STD_INPUT__
 GLOBAL| Method name                                                        CP2K
 GLOBAL| Project name                                                    PROJECT
 GLOBAL| Run type                                                         ENERGY
 GLOBAL| FFT library                                                       FFTW3
 GLOBAL| Diagonalization library                                            ELPA
 GLOBAL| Minimum number of eigenvectors for ELPA usage                        16
 GLOBAL| Orthonormality check for eigenvectors                          DISABLED
 GLOBAL| Matrix multiplication library                                 ScaLAPACK
 GLOBAL| All-to-all communication in single precision                          F
 GLOBAL| FFTs using library dependent lengths                                  F
 GLOBAL| Grid backend                                                       AUTO
 GLOBAL| Global print level                                               MEDIUM
 GLOBAL| MPI I/O enabled                                                       T
 GLOBAL| Total number of message passing processes                            40
 GLOBAL| Number of threads for this process                                    1
 GLOBAL| This output is from process                                           0
 GLOBAL| Stack size for threads created by OpenMP (OMP_STACKSIZE)        default
 GLOBAL| CPU model name                Intel(R) Xeon(R) CPU E5-2640 v4 @ 2.40GHz
 GLOBAL| CPUID                                                              1002
 GLOBAL| Compiled for CPUID                                                 1001

 *** HINT in environment.F:869 :: The compiler target flags (x86_avx) used ***
 *** to build this binary cannot exploit all extensions of this CPU model  ***
 *** (x86_avx2). Consider compiler target flags as part of FCFLAGS and     ***
 *** CFLAGS (ARCH file).                                                   ***


 MEMORY| system memory details [Kb]
 MEMORY|                        rank 0           min           max       average
 MEMORY| MemTotal            197799404     197799404     197799496     197799450
 MEMORY| MemFree             192581308     192581308     192587000     192584154
 MEMORY| Buffers                  8188          6112          8188          7150
 MEMORY| Cached                 263680        259360        263680        261520
 MEMORY| Slab                   121204        119956        121204        120580
 MEMORY| SReclaimable            34208         33596         34208         33902
 MEMORY| MemLikelyFree       192887384     192886068     192887384     192886726


 *** Fundamental physical constants (SI units) ***

 *** Literature: B. J. Mohr and B. N. Taylor,
 ***             CODATA recommended values of the fundamental physical
 ***             constants: 2006, Web Version 5.1
 ***             http://physics.nist.gov/constants

 Speed of light in vacuum [m/s]                             2.99792458000000E+08
 Magnetic constant or permeability of vacuum [N/A**2]       1.25663706143592E-06
 Electric constant or permittivity of vacuum [F/m]          8.85418781762039E-12
 Planck constant (h) [J*s]                                  6.62606896000000E-34
 Planck constant (h-bar) [J*s]                              1.05457162825177E-34
 Elementary charge [C]                                      1.60217648700000E-19
 Electron mass [kg]                                         9.10938215000000E-31
 Electron g factor [ ]                                     -2.00231930436220E+00
 Proton mass [kg]                                           1.67262163700000E-27
 Fine-structure constant                                    7.29735253760000E-03
 Rydberg constant [1/m]                                     1.09737315685270E+07
 Avogadro constant [1/mol]                                  6.02214179000000E+23
 Boltzmann constant [J/K]                                   1.38065040000000E-23
 Atomic mass unit [kg]                                      1.66053878200000E-27
 Bohr radius [m]                                            5.29177208590000E-11

 *** Conversion factors ***

 [u] -> [a.u.]                                              1.82288848426455E+03
 [Angstrom] -> [Bohr] = [a.u.]                              1.88972613288564E+00
 [a.u.] = [Bohr] -> [Angstrom]                              5.29177208590000E-01
 [a.u.] -> [s]                                              2.41888432650478E-17
 [a.u.] -> [fs]                                             2.41888432650478E-02
 [a.u.] -> [J]                                              4.35974393937059E-18
 [a.u.] -> [N]                                              8.23872205491840E-08
 [a.u.] -> [K]                                              3.15774647902944E+05
 [a.u.] -> [kJ/mol]                                         2.62549961709828E+03
 [a.u.] -> [kcal/mol]                                       6.27509468713739E+02
 [a.u.] -> [Pa]                                             2.94210107994716E+13
 [a.u.] -> [bar]                                            2.94210107994716E+08
 [a.u.] -> [atm]                                            2.90362800883016E+08
 [a.u.] -> [eV]                                             2.72113838565563E+01
 [a.u.] -> [Hz]                                             6.57968392072181E+15
 [a.u.] -> [1/cm] (wave numbers)                            2.19474631370540E+05
 [a.u./Bohr**2] -> [1/cm]                                   5.14048714338585E+03
 
 MIXED_ENV| Number of created MPI groups:                                      1
 MIXED_ENV| Task to group correspondence:
  (   0 :    0)  (   1 :    0)  (   2 :    0)  (   3 :    0)
  (   4 :    0)  (   5 :    0)  (   6 :    0)  (   7 :    0)
  (   8 :    0)  (   9 :    0)  (  10 :    0)  (  11 :    0)
  (  12 :    0)  (  13 :    0)  (  14 :    0)  (  15 :    0)
  (  16 :    0)  (  17 :    0)  (  18 :    0)  (  19 :    0)
  (  20 :    0)  (  21 :    0)  (  22 :    0)  (  23 :    0)
  (  24 :    0)  (  25 :    0)  (  26 :    0)  (  27 :    0)
  (  28 :    0)  (  29 :    0)  (  30 :    0)  (  31 :    0)
  (  32 :    0)  (  33 :    0)  (  34 :    0)  (  35 :    0)
  (  36 :    0)  (  37 :    0)  (  38 :    0)  (  39 :    0)

 CELL_TOP| Volume [angstrom^3]:                                      2911.992402
 CELL_TOP| Vector a [angstrom    13.911     0.000     0.000   |a| =    13.910500
 CELL_TOP| Vector b [angstrom     0.000    13.911     0.000   |b| =    13.910500
 CELL_TOP| Vector c [angstrom     0.000     0.000    15.049   |c| =    15.048900
 CELL_TOP| Angle (b,c), alpha [degree]:                                90.000000
 CELL_TOP| Angle (a,c), beta  [degree]:                                90.000000
 CELL_TOP| Angle (a,b), gamma [degree]:                                90.000000
 CELL_TOP| Numerically orthorhombic:                                         YES
 
 GENERATE|  Preliminary Number of Bonds generated:                             0
 GENERATE|  Achieved consistency in connectivity generation.

 CELL| Volume [angstrom^3]:                                          2911.992402
 CELL| Vector a [angstrom]:      13.911     0.000     0.000   |a| =    13.910500
 CELL| Vector b [angstrom]:       0.000    13.911     0.000   |b| =    13.910500
 CELL| Vector c [angstrom]:       0.000     0.000    15.049   |c| =    15.048900
 CELL| Angle (b,c), alpha [degree]:                                    90.000000
 CELL| Angle (a,c), beta  [degree]:                                    90.000000
 CELL| Angle (a,b), gamma [degree]:                                    90.000000
 CELL| Numerically orthorhombic:                                             YES

 CELL_REF| Volume [angstrom^3]:                                      2911.992402
 CELL_REF| Vector a [angstrom    13.911     0.000     0.000   |a| =    13.910500
 CELL_REF| Vector b [angstrom     0.000    13.911     0.000   |b| =    13.910500
 CELL_REF| Vector c [angstrom     0.000     0.000    15.049   |c| =    15.048900
 CELL_REF| Angle (b,c), alpha [degree]:                                90.000000
 CELL_REF| Angle (a,c), beta  [degree]:                                90.000000
 CELL_REF| Angle (a,b), gamma [degree]:                                90.000000
 CELL_REF| Numerically orthorhombic:                                         YES


 MOLECULE KIND INFORMATION


 All atoms are their own molecule, skipping detailed information
 
 MIXED_CDFT| Activating mixed CDFT calculation
 MIXED_CDFT| Number of CDFT states:                                            2
 MIXED_CDFT| CDFT states calculation mode: serial
 MIXED_CDFT| The constraints are separately built for all CDFT states
 MIXED_CDFT| Calculating electronic coupling between states:                   T
 MIXED_CDFT| Calculating electronic coupling reliability metric:               F
 MIXED_CDFT| Configuration interaction (CDFT-CI) was requested:                F
 MIXED_CDFT| Block diagonalizing the mixed CDFT Hamiltonian:                   F
 MIXED_CDFT| Matrix inversions calculated with LU decomposition.

  ------------------------- CDFT coupling information --------------------------
  Information at step (fs):                                                 0.00

  ############################################
  ###### CDFT states I =  1 and J =   2 ######
  ############################################
  Atomic group:                                                                1
  Strength of constraint I:                                      -0.061809126881
  Strength of constraint J:                                      -0.061906875746
  Final value of constraint I:                                    1.000457329346
  Final value of constraint J:                                    0.999220873953

  Overlap between states I and J:                                 0.182497797952
  Charge transfer energy (J-I) (Hartree):                         0.000058929531
 
  Diabatic electronic coupling (Lowdin, mHartree):                6.871706563288
  ------------------------------------------------------------------------------
 NO FORCE_EVAL section calculated the dipole

 ENERGY| Total FORCE_EVAL ( MIXED ) energy [a.u.]:         -8123.901543981573923

 -------------------------------------------------------------------------------
 -                                                                             -
 -                                DBCSR STATISTICS                             -
 -                                                                             -
 -------------------------------------------------------------------------------
 COUNTER                                    TOTAL       BLAS       SMM       ACC
 flops  1152 x   120 x   232            192430080       0.0%    100.0%      0.0%
 flops  1160 x   120 x   232            193766400       0.0%    100.0%      0.0%
 flops  1152 x   121 x   232            194033664       0.0%    100.0%      0.0%
 flops  1160 x   121 x   232            195381120       0.0%    100.0%      0.0%
 flops  1184 x   120 x   232            395550720       0.0%    100.0%      0.0%
 flops  1184 x   121 x   232            398846976       0.0%    100.0%      0.0%
 flops  1152 x   128 x   232           1231552512       0.0%    100.0%      0.0%
 flops  1160 x   128 x   232           1240104960       0.0%    100.0%      0.0%
 flops  1152 x   120 x   256           1274019840       0.0%    100.0%      0.0%
 flops  1160 x   120 x   256           1282867200       0.0%    100.0%      0.0%
 flops  1152 x   121 x   256           1284636672       0.0%    100.0%      0.0%
 flops  1160 x   121 x   256           1293557760       0.0%    100.0%      0.0%
 flops  1152 x    96 x   232           1847328768       0.0%    100.0%      0.0%
 flops  1160 x    96 x   232           1860157440       0.0%    100.0%      0.0%
 flops  1152 x   120 x   224           2415329280       0.0%    100.0%      0.0%
 flops  1160 x   120 x   224           2432102400       0.0%    100.0%      0.0%
 flops  1152 x   121 x   224           2435457024       0.0%    100.0%      0.0%
 flops  1160 x   121 x   224           2452369920       0.0%    100.0%      0.0%
 flops  1184 x   128 x   232           2531524608       0.0%    100.0%      0.0%
 flops  1184 x   120 x   256           2618818560       0.0%    100.0%      0.0%
 flops  1184 x   121 x   256           2640642048       0.0%    100.0%      0.0%
 flops  1184 x    96 x   232           3797286912       0.0%    100.0%      0.0%
 flops  1184 x   120 x   224           4964843520       0.0%    100.0%      0.0%
 flops  1184 x   121 x   224           5006217216       0.0%    100.0%      0.0%
 flops   281 x   121 x    57           6054490068       0.0%    100.0%      0.0%
 flops   288 x   121 x    57           6205313664       0.0%    100.0%      0.0%
 flops   280 x   120 x    56           7089868800       0.0%    100.0%      0.0%
 flops   288 x   120 x    56           7292436480       0.0%    100.0%      0.0%
 flops  1152 x   128 x   256           8153726976       0.0%    100.0%      0.0%
 flops  1160 x   128 x   256           8210350080       0.0%    100.0%      0.0%
 flops   256 x   121 x    57          11031668736       0.0%    100.0%      0.0%
 flops  1152 x    96 x   256          12230590464       0.0%    100.0%      0.0%
 flops  1160 x    96 x   256          12315525120       0.0%    100.0%      0.0%
 flops   256 x   120 x    56          12964331520       0.0%    100.0%      0.0%
 flops  1152 x   128 x   224          15458107392       0.0%    100.0%      0.0%
 flops  1160 x   128 x   224          15565455360       0.0%    100.0%      0.0%
 flops  1184 x   128 x   256          16760438784       0.0%    100.0%      0.0%
 flops   281 x   128 x    57          19214249472       0.0%    100.0%      0.0%
 flops   288 x   128 x    57          19692896256       0.0%    100.0%      0.0%
 flops   281 x   121 x    32          20394071808       0.0%    100.0%      0.0%
 flops   288 x   121 x    32          20902109184       0.0%    100.0%      0.0%
 flops   280 x   128 x    56          22687580160       0.0%    100.0%      0.0%
 flops  1152 x    96 x   224          23187161088       0.0%    100.0%      0.0%
 flops   288 x   128 x    56          23335796736       0.0%    100.0%      0.0%
 flops  1160 x    96 x   224          23348183040       0.0%    100.0%      0.0%
 flops   280 x   120 x    32          24308121600       0.0%    100.0%      0.0%
 flops   288 x   120 x    32          25002639360       0.0%    100.0%      0.0%
 flops  1184 x    96 x   256          25140658176       0.0%    100.0%      0.0%
 flops   281 x    96 x    57          28821374208       0.0%    100.0%      0.0%
 flops   288 x    96 x    57          29539344384       0.0%    100.0%      0.0%
 flops  1184 x   128 x   224          31774998528       0.0%    100.0%      0.0%
 flops   280 x    96 x    56          34031370240       0.0%    100.0%      0.0%
 flops   288 x    96 x    56          35003695104       0.0%    100.0%      0.0%
 flops   256 x   128 x    57          35009593344       0.0%    100.0%      0.0%
 flops   256 x   121 x    32          37159305216       0.0%    100.0%      0.0%
 flops   256 x   128 x    56          41485860864       0.0%    100.0%      0.0%
 flops   256 x   120 x    32          44449136640       0.0%    100.0%      0.0%
 flops  1184 x    96 x   224          47662497792       0.0%    100.0%      0.0%
 flops   256 x    96 x    57          52514390016       0.0%    100.0%      0.0%
 flops   256 x    96 x    56          62228791296       0.0%    100.0%      0.0%
 flops   281 x   128 x    32          64721682432       0.0%    100.0%      0.0%
 flops  1170 x   121 x    57          69397614000       0.0%    100.0%      0.0%
 flops  1170 x   120 x    56          75290342400       0.0%    100.0%      0.0%
 flops   280 x   128 x    32          77785989120       0.0%    100.0%      0.0%
 flops   281 x   121 x    64          88374311168       0.0%    100.0%      0.0%
 flops   288 x   121 x    64          90575806464       0.0%    100.0%      0.0%
 flops   281 x    96 x    32          97082523648       0.0%    100.0%      0.0%
 flops   280 x   120 x    64         105335193600       0.0%    100.0%      0.0%
 flops   288 x   120 x    64         108344770560       0.0%    100.0%      0.0%
 flops   280 x    96 x    32         116678983680       0.0%    100.0%      0.0%
 flops   280 x   120 x   221         117265075200       0.0%    100.0%      0.0%
 flops   281 x   121 x   221         118664578032       0.0%    100.0%      0.0%
 flops   288 x   120 x   221         120615505920       0.0%    100.0%      0.0%
 flops   288 x   121 x   221         121620635136       0.0%    100.0%      0.0%
 flops   280 x   120 x   247         131060966400       0.0%    100.0%      0.0%
 flops   281 x   121 x   247         132625116624       0.0%    100.0%      0.0%
 flops   288 x   120 x   247         134805565440       0.0%    100.0%      0.0%
 flops   288 x   121 x   247         135928945152       0.0%    100.0%      0.0%
 flops    13 x     8 x    13         141061190400       0.0%    100.0%      0.0%
 flops   288 x   128 x    32         146342412288       0.0%    100.0%      0.0%
 flops    26 x     8 x    13         147184128000       0.0%    100.0%      0.0%
 flops    13 x     8 x    26         147184128000       0.0%    100.0%      0.0%
 flops    26 x     8 x    26         148021286400       0.0%    100.0%      0.0%
 flops   256 x   121 x    64         161023655936       0.0%    100.0%      0.0%
 flops   280 x   120 x   234         165550694400       0.0%    100.0%      0.0%
 flops   281 x   121 x   234         167526463104       0.0%    100.0%      0.0%
 flops   288 x   120 x   234         170280714240       0.0%    100.0%      0.0%
 flops   288 x   121 x   234         171699720192       0.0%    100.0%      0.0%
 flops   256 x   120 x    64         192612925440       0.0%    100.0%      0.0%
 flops   256 x   120 x   221         214427566080       0.0%    100.0%      0.0%
 flops   256 x   121 x   221         216214462464       0.0%    100.0%      0.0%
 flops   288 x    96 x    32         219513618432       0.0%    100.0%      0.0%
 flops  1170 x   128 x    57         220237056000       0.0%    100.0%      0.0%
 flops  1170 x   121 x    32         233760384000       0.0%    100.0%      0.0%
 flops   256 x   120 x   247         239654338560       0.0%    100.0%      0.0%
 flops  1170 x   128 x    56         240929095680       0.0%    100.0%      0.0%
 flops   256 x   121 x   247         241651458048       0.0%    100.0%      0.0%
 flops    13 x    13 x    56         248144944320       0.0%    100.0%      0.0%
 flops    13 x    13 x    57         252576104040       0.0%    100.0%      0.0%
 flops  1170 x   120 x    32         258138316800       0.0%    100.0%      0.0%
 flops    26 x    13 x    56         258185491200       0.0%    100.0%      0.0%
 flops    13 x    26 x    56         258185491200       0.0%    100.0%      0.0%
 flops   256 x   128 x    32         260164288512       0.0%    100.0%      0.0%
 flops    26 x    26 x    56         261054218880       0.0%    100.0%      0.0%
 flops    26 x    13 x    57         262795946400       0.0%    100.0%      0.0%
 flops    13 x    26 x    57         262795946400       0.0%    100.0%      0.0%
 flops    26 x    26 x    57         265715901360       0.0%    100.0%      0.0%
 flops   281 x   128 x    64         280460623872       0.0%    100.0%      0.0%
 flops   256 x   120 x   234         302721269760       0.0%    100.0%      0.0%
 flops   256 x   121 x   234         305243947008       0.0%    100.0%      0.0%
 flops  1170 x    96 x    57         330355584000       0.0%    100.0%      0.0%
 flops   280 x   128 x    64         337072619520       0.0%    100.0%      0.0%
 flops    13 x    24 x    13         348843905280       0.0%    100.0%      0.0%
 flops  1170 x    96 x    56         361393643520       0.0%    100.0%      0.0%
 flops    13 x    25 x    13         362855844000       0.0%    100.0%      0.0%
 flops    26 x    24 x    26         365069203200       0.0%    100.0%      0.0%
 flops    26 x    24 x    13         365069203200       0.0%    100.0%      0.0%
 flops    13 x    24 x    26         365069203200       0.0%    100.0%      0.0%
 flops   280 x   128 x   221         375248240640       0.0%    100.0%      0.0%
 flops   281 x   128 x   221         376588412928       0.0%    100.0%      0.0%
 flops    26 x    25 x    26         379732860000       0.0%    100.0%      0.0%
 flops    26 x    25 x    13         379732860000       0.0%    100.0%      0.0%
 flops    13 x    25 x    26         379732860000       0.0%    100.0%      0.0%
 flops   256 x    96 x    32         390246432768       0.0%    100.0%      0.0%
 flops   280 x   128 x   247         419395092480       0.0%    100.0%      0.0%
 flops   281 x    96 x    64         420690935808       0.0%    100.0%      0.0%
 flops   281 x   128 x   247         420892932096       0.0%    100.0%      0.0%
 flops   280 x    96 x    64         505608929280       0.0%    100.0%      0.0%
 flops   280 x   128 x   234         529762222080       0.0%    100.0%      0.0%
 flops   281 x   128 x   234         531654230016       0.0%    100.0%      0.0%
 flops   280 x    96 x   221         562872360960       0.0%    100.0%      0.0%
 flops   281 x    96 x   221         564882619392       0.0%    100.0%      0.0%
 flops   280 x    96 x   247         629092638720       0.0%    100.0%      0.0%
 flops   281 x    96 x   247         631339398144       0.0%    100.0%      0.0%
 flops   288 x   128 x    64         634150453248       0.0%    100.0%      0.0%
 flops   288 x   128 x   221         771939237888       0.0%    100.0%      0.0%
 flops   280 x    96 x   234         794643333120       0.0%    100.0%      0.0%
 flops   281 x    96 x   234         797481345024       0.0%    100.0%      0.0%
 flops   288 x   128 x   247         862755618816       0.0%    100.0%      0.0%
 flops   288 x    96 x    64         951225679872       0.0%    100.0%      0.0%
 flops  1170 x   121 x    64        1012961664000       0.0%    100.0%      0.0%
 flops    13 x    13 x   232        1050005923200       0.0%    100.0%      0.0%
 flops   288 x   128 x   234        1089796571136       0.0%    100.0%      0.0%
 flops    26 x    13 x   232        1092491712000       0.0%    100.0%      0.0%
 flops    13 x    26 x   232        1092491712000       0.0%    100.0%      0.0%
 flops    26 x    26 x   232        1104630508800       0.0%    100.0%      0.0%
 flops  1170 x   120 x    64        1118599372800       0.0%    100.0%      0.0%
 flops   256 x   128 x    64        1127378583552       0.0%    100.0%      0.0%
 flops   288 x    96 x   221        1157908856832       0.0%    100.0%      0.0%
 flops  1170 x   120 x   221        1280852352000       0.0%    100.0%      0.0%
 flops  1170 x   121 x   221        1291526121600       0.0%    100.0%      0.0%
 flops   288 x    96 x   247        1294133428224       0.0%    100.0%      0.0%
 flops   256 x   128 x   221        1372336422912       0.0%    100.0%      0.0%
 flops  1170 x   120 x   247        1431540864000       0.0%    100.0%      0.0%
 flops  1170 x   121 x   247        1443470371200       0.0%    100.0%      0.0%
 flops   256 x   128 x   247        1533787766784       0.0%    100.0%      0.0%
 flops  1170 x   128 x    32        1567893749760       0.0%    100.0%      0.0%
 flops   288 x    96 x   234        1634694856704       0.0%    100.0%      0.0%
 flops   256 x    96 x    64        1691067875328       0.0%    100.0%      0.0%
 flops    13 x    13 x    32        1701565332480       0.0%    100.0%      0.0%
 flops    26 x    13 x    32        1770414796800       0.0%    100.0%      0.0%
 flops    13 x    26 x    32        1770414796800       0.0%    100.0%      0.0%
 flops    26 x    26 x    32        1790086072320       0.0%    100.0%      0.0%
 flops  1170 x   120 x   234        1808262144000       0.0%    100.0%      0.0%
 flops  1170 x   121 x   234        1823330995200       0.0%    100.0%      0.0%
 flops   256 x   128 x   234        1937416126464       0.0%    100.0%      0.0%
 flops   256 x    96 x   221        2058504634368       0.0%    100.0%      0.0%
 flops   256 x    96 x   247        2300681650176       0.0%    100.0%      0.0%
 flops  1170 x    96 x    32        2351840624640       0.0%    100.0%      0.0%
 flops   256 x    96 x   234        2906124189696       0.0%    100.0%      0.0%
 flops  1170 x   128 x    64        6794206248960       0.0%    100.0%      0.0%
 flops    13 x    13 x   256        6951763353600       0.0%    100.0%      0.0%
 flops    26 x    13 x   256        7233048576000       0.0%    100.0%      0.0%
 flops    13 x    26 x   256        7233048576000       0.0%    100.0%      0.0%
 flops    26 x    26 x   256        7313415782400       0.0%    100.0%      0.0%
 flops    13 x    13 x    64        7373449774080       0.0%    100.0%      0.0%
 flops    26 x    13 x    64        7671797452800       0.0%    100.0%      0.0%
 flops    13 x    26 x    64        7671797452800       0.0%    100.0%      0.0%
 flops    26 x    26 x    64        7757039646720       0.0%    100.0%      0.0%
 flops  1170 x   128 x   221        8197455052800       0.0%    100.0%      0.0%
 flops  1170 x   128 x   247        9161861529600       0.0%    100.0%      0.0%
 flops  1170 x    96 x    64       10191309373440       0.0%    100.0%      0.0%
 flops  1170 x   128 x   234       11572877721600       0.0%    100.0%      0.0%
 flops  1170 x    96 x   221       12296182579200       0.0%    100.0%      0.0%
 flops    13 x    13 x   224       13179384691200       0.0%    100.0%      0.0%
 flops    26 x    13 x   224       13712654592000       0.0%    100.0%      0.0%
 flops    13 x    26 x   224       13712654592000       0.0%    100.0%      0.0%
 flops  1170 x    96 x   247       13742792294400       0.0%    100.0%      0.0%
 flops    26 x    26 x   224       13865017420800       0.0%    100.0%      0.0%
 flops  1170 x    96 x   234       17359316582400       0.0%    100.0%      0.0%
 flops    13 x    32 x    13      113055897876480       0.0%    100.0%      0.0%
 flops    26 x    32 x    13      118058491699200       0.0%    100.0%      0.0%
 flops    13 x    32 x    26      118058491699200       0.0%    100.0%      0.0%
 flops    26 x    32 x    26      118547392204800       0.0%    100.0%      0.0%
 flops inhomo. stacks                           0       0.0%      0.0%      0.0%
 flops total                       742.340591E+12       0.0%    100.0%      0.0%
 flops max/rank                     20.174900E+12       0.0%    100.0%      0.0%
 matmuls inhomo. stacks                         0       0.0%      0.0%      0.0%
 matmuls total                        26259447640       0.0%    100.0%      0.0%
 number of processed stacks              49926592       0.0%    100.0%      0.0%
 average stack size                                     0.0     526.0       0.0
 marketing flops                     1.052032E+15
 -------------------------------------------------------------------------------
 # multiplications                          17936
 max memory usage/rank               1.214222E+09
 # max total images/rank                        5
 # max 3D layers                                1
 # MPI messages exchanged                23675520
 MPI messages size (bytes):
  total size                        16.737286E+12
  min size                           0.000000E+00
  max size                           2.424832E+06
  average size                     706.944812E+03
 MPI breakdown and total messages size (bytes):
             size <=      128              348300                        0
       128 < size <=     8192               85140                418579200
      8192 < size <=    32768             1153080              31471884576
     32768 < size <=   131072             4427298             340730042472
    131072 < size <=  4194304            17661702           16365817134144
   4194304 < size <= 16777216                   0                        0
  16777216 < size                               0                        0
 -------------------------------------------------------------------------------

 *** WARNING in dbcsr_mm.F:290 :: Using a non-square number of MPI ranks ***
 *** might lead to poor performance. Used ranks: 40 Suggested: 36 81     ***

 -------------------------------------------------------------------------------
 -                                                                             -
 -                      DBCSR MESSAGE PASSING PERFORMANCE                      -
 -                                                                             -
 -------------------------------------------------------------------------------
 ROUTINE             CALLS      AVE VOLUME [Bytes]
 MP_Bcast              195                     12.
 MP_Allreduce        91269                    245.
 MP_Alltoall        167895                 939684.
 MP_ISend          1348896                 341023.
 MP_IRecv          1342100                 338235.
 -------------------------------------------------------------------------------

 -------------------------------------------------------------------------------
 -                                                                             -
 -                                DBM STATISTICS                               -
 -                                                                             -
 -------------------------------------------------------------------------------
    M  x    N  x    K                                          COUNT     PERCENT
 -------------------------------------------------------------------------------

 -------------------------------------------------------------------------------
 -                                                                             -
 -                                GRID STATISTICS                              -
 -                                                                             -
 -------------------------------------------------------------------------------
 LP    KERNEL             BACKEND                              COUNT     PERCENT
 5     collocate ortho    REF                              391631040      33.76%
 5     integrate ortho    REF                              200466720      17.28%
 6     collocate ortho    REF                              199301400      17.18%
 4     collocate ortho    REF                              176112720      15.18%
 6     integrate ortho    REF                              102017700       8.80%
 4     integrate ortho    REF                               90147960       7.77%
 0     collocate general  REF                                 217280       0.02%
 0     integrate general  REF                                  43200       0.00%
 -------------------------------------------------------------------------------

 MEMORY| Estimated peak process memory [MiB]                                1156

 -------------------------------------------------------------------------------
 -                                                                             -
 -                         MESSAGE PASSING PERFORMANCE                         -
 -                                                                             -
 -------------------------------------------------------------------------------

 ROUTINE             CALLS      AVE VOLUME [Bytes]
 MP_Group               10
 MP_Bcast             5595                 126969.
 MP_Allreduce        18426                    174.
 MP_Sync               243
 MP_Alltoall         17424                9302891.
 MP_SendRecv         20320                 552960.
 MP_ISendRecv       297882                  26640.
 MP_Wait            553175
 MP_comm_split          93
 MP_ISend           234897                 296037.
 MP_IRecv           234897                 296037.
 MP_Recv              3498                1198080.
 MP_Write_All            4                 202240.
 -------------------------------------------------------------------------------


 -------------------------------------------------------------------------------
 -                                                                             -
 -                           R E F E R E N C E S                               -
 -                                                                             -
 -------------------------------------------------------------------------------
 
 CP2K version 2022.1, the CP2K developers group (2022).
 CP2K is freely available from https://www.cp2k.org/ .

 Kuehne,Thomas D.; Iannuzzi,Marcella; Del Ben,Mauro;
 Rybkin,Vladimir V.; Seewald,Patrick; Stein,Frederick; Laino,Teodoro;
 Khaliullin,Rustam Z.; Schuett,Ole; Schiffmann,Florian; Golze,Dorothea;
 Wilhelm,Jan; Chulkov,Sergey; Bani-Hashemian,Mohammad Hossein;
 Weber,Valery; Borstnik,Urban; Taillefumier,Mathieu;
 Jakobovits,Alice Shoshana; Lazzaro,Alfio; Pabst,Hans; Mueller,Tiziano;
 Schade,Robert; Guidon,Manuel; Andermatt,Samuel; Holmberg,Nico;
 Schenter,Gregory K.; Hehn,Anna; Bussy,Augustin; Belleflamme,Fabian;
 Tabacchi,Gloria; Gloess,Andreas; Lass,Michael; Bethune,Iain;
 Mundy,Christopher J.; Plessl,Christian; Watkins,Matt;
 VandeVondele,Joost; Krack,Matthias; Hutter,Juerg. 
 The Journal of Chemical Physics, 152 (19), (2020). 
 CP2K: An electronic structure and molecular dynamics software package -
 Quickstep: Efficient and accurate electronic structure calculations.
 https://doi.org/10.1063/5.0007045

 Holmberg, Nico; Laasonen, Kari. 
 The Journal of Chemical Physics, 149 (10), 104702 (2018). 
 Diabatic model for electrochemical hydrogen evolution based on
 constrained DFT
 configuration interaction.
 https://doi.org/10.1063/1.5038959

 Holmberg, N; Laasonen, K. 
 Journal of Chemical Theory and Computation, 13 (2), (2017). 
 Efficient Constrained Density Functional Theory Implementation for
 Simulation of Condensed Phase Electron Transfer Reactions.
 https://doi.org/10.1021/acs.jctc.6b01085

 Goerigk, Lars; Hansen, Andreas; Bauer, Christoph; Ehrlich, Stephan;
 Najibi, Asim; Grimme, Stefan. , 19 (48), (2017). 
 A look at the density functional theory zoo with the advanced GMTKN55 database
 for general main group thermochemistry, kinetics and noncovalent interactions.
 https://doi.org/10.1039/C7CP04913G

 Schuett, Ole; Messmer, Peter; Hutter, Juerg; VandeVondele, Joost. 
 Electronic Structure Calculations on Graphics Processing Units, John
 Wiley & Sons, Ltd, 173-190 (2016). 
 GPU-Accelerated Sparse Matrix-Matrix Multiplication for
 Linear Scaling Density Functional Theory.
 https://doi.org/10.1002/9781118670712.ch8

 Heinecke, A; Henry, G; Hutchinson, M; Pabst, H. 
 Proceedings of Intl. Supercomputing Conference, 981-991 (2016). 
 LIBXSMM: Accelerating Small Matrix Multiplications
 by Runtime Code Generation.
 https://doi.org/10.1109/SC.2016.83

 Borstnik, U; VandeVondele, J; Weber, V; Hutter, J. 
 PARALLEL COMPUTING, 40 (5-6), 47-58 (2014). 
 Sparse matrix multiplication: The distributed block-compressed sparse
 row library.
 https://doi.org/10.1016/j.parco.2014.03.012

 Hutter, J; Iannuzzi, M; Schiffmann, F; VandeVondele, J. 
 WIREs Comput Mol Sci., 4 (1), 15-25 (2014). 
 CP2K: atomistic simulations of condensed matter systems.
 https://doi.org/10.1002/wcms.1159

 Marek, A; Blum, V; Johanni, R; Havu, V; Lang, B; Auckenthaler, T;
 Heinecke, A; Bungartz, H; Lederer, H. 
 Journal of Physics: Condensed Matter, 26 (21), (2014). 
 The ELPA library: scalable parallel eigenvalue solutions for
 electronic structure
 theory and computational science.
 https://doi.org/10.1088/0953-8984/26/21/213201

 Grimme, S; Ehrlich, S; Goerigk, L. 
 JOURNAL OF COMPUTATIONAL CHEMISTRY, 32, 1456 (2011). 
 Effect of the damping function in dispersion corrected density functional theory.
 https://doi.org/10.1002/jcc.21759

 Grimme, S; Antony, J; Ehrlich, S; Krieg, H. 
 JOURNAL OF CHEMICAL PHYSICS, 132 (15), 154104 (2010). 
 A consistent and accurate ab initio parametrization of density
 functional dispersion correction (DFT-D) for the 94 elements H-Pu.
 https://doi.org/10.1063/1.3382344

 Weber, V; VandeVondele, J; Hutter, J; Niklasson, AMN. 
 JOURNAL OF CHEMICAL PHYSICS, 128 (8), 084113 (2008). 
 Direct energy functional minimization under orthogonality constraints.
 https://doi.org/10.1063/1.2841077

 VandeVondele, J; Hutter, J. 
 JOURNAL OF CHEMICAL PHYSICS, 127 (11), 114105 (2007). 
 Gaussian basis sets for accurate calculations on molecular systems in
 gas and condensed phases.
 https://doi.org/10.1063/1.2770708

 Krack, M. 
 THEORETICAL CHEMISTRY ACCOUNTS, 114 (1-3), 145-152 (2005). 
 Pseudopotentials for H to Kr optimized for gradient-corrected
 exchange-correlation functionals.
 https://doi.org/10.1007/s00214-005-0655-y

 VandeVondele, J; Krack, M; Mohamed, F; Parrinello, M; Chassaing, T;
 Hutter, J. COMPUTER PHYSICS COMMUNICATIONS, 167 (2), 103-128 (2005). 
 QUICKSTEP: Fast and accurate density functional calculations using a
 mixed Gaussian and plane waves approach.
 https://doi.org/10.1016/j.cpc.2004.12.014

 Frigo, M; Johnson, SG. 
 PROCEEDINGS OF THE IEEE, 93 (2), 216-231 (2005). 
 The design and implementation of FFTW3.
 https://doi.org/10.1109/JPROC.2004.840301

 VandeVondele, J; Hutter, J. 
 JOURNAL OF CHEMICAL PHYSICS, 118 (10), 4365-4369 (2003). 
 An efficient orbital transformation method for electronic structure
 calculations.
 https://doi.org/10.1063/1.1543154

 Hartwigsen, C; Goedecker, S; Hutter, J. 
 PHYSICAL REVIEW B, 58 (7), 3641-3662 (1998). 
 Relativistic separable dual-space Gaussian pseudopotentials from H to Rn.
 https://doi.org/10.1103/PhysRevB.58.3641

 Dudarev, SL; Botton, GA; Savrasov, SY; Humphreys, CJ; Sutton, AP. 
 PHYSICAL REVIEW B, 57 (3), 1505-1509 (1998). 
 Electron-energy-loss spectra and the structural stability of
 nickel oxide: An LSDA+U study.
 https://doi.org/10.1103/PhysRevB.57.1505

 Lippert, G; Hutter, J; Parrinello, M. 
 MOLECULAR PHYSICS, 92 (3), 477-487 (1997). 
 A hybrid Gaussian and plane wave density functional scheme.
 https://doi.org/10.1080/002689797170220

 Dudarev, SL; Manh, DN; Sutton, AP. 
 PHILOSOPHICAL MAGAZINE B, 75 (5), 613-628 (1997). 
 Effect of Mott-Hubbard correlations on the electronic
 structure and structural stability of uranium dioxide.
 https://doi.org/10.1080/13642819708202343

 Perdew, JP; Burke, K; Ernzerhof, M. 
 PHYSICAL REVIEW LETTERS, 77 (18), 3865-3868 (1996). 
 Generalized gradient approximation made simple.
 https://doi.org/10.1103/PhysRevLett.77.3865

 Goedecker, S; Teter, M; Hutter, J. 
 PHYSICAL REVIEW B, 54 (3), 1703-1710 (1996). 
 Separable dual-space Gaussian pseudopotentials.
 https://doi.org/10.1103/PhysRevB.54.1703


 -------------------------------------------------------------------------------
 -                                                                             -
 -                                T I M I N G                                  -
 -                                                                             -
 -------------------------------------------------------------------------------
 SUBROUTINE                       CALLS  ASD         SELF TIME        TOTAL TIME
                                MAXIMUM       AVERAGE  MAXIMUM  AVERAGE  MAXIMUM
 CP2K                                 1  1.0    0.076    0.081 8173.383 8189.388
 qs_energies                          2  2.0    0.004    0.006 8170.804 8186.804
 cdft_scf_loop                        2  3.0    0.001    0.002 8143.328 8159.271
 scf_env_do_scf                      20  4.0    0.005    0.010 8140.077 8156.016
 scf_env_do_scf_inner_loop          840  5.0    0.020    0.047 7746.827 7762.798
 qs_ks_update_qs_env                863  6.0    0.008    0.010 4159.940 4164.602
 rebuild_ks_matrix                  840  7.0    0.005    0.006 4155.289 4159.936
 qs_ks_build_kohn_sham_matrix       840  8.0    0.152    0.191 4155.285 4159.931
 qs_rho_update_rho_low              842  6.0    0.007    0.007 2925.951 2930.845
 calculate_rho_elec                1684  7.0    3.358    3.492 2925.944 2930.839
 grid_collocate_task_list          1684  8.0 2417.513 2491.457 2417.513 2491.457
 plus_u                             840  9.0    0.032    0.041 2228.349 2232.610
 lowdin                             840 10.0    0.355    0.542 2228.318 2232.584
 dbcsr_multiply_generic           17936 11.1    1.396    1.535 1731.556 1759.363
 multiply_cannon                  17936 12.1    2.314    2.758 1393.120 1461.980
 sum_up_and_integrate               430  9.0   10.507   10.764 1419.517 1422.257
 integrate_v_rspace                 862 10.0    0.032    0.039 1412.244 1415.213
 multiply_cannon_loop             17936 13.1    5.392    5.687 1323.111 1387.821
 grid_integrate_task_list           862 11.0 1148.392 1183.190 1148.392 1183.190
 multiply_cannon_multrec         358720 14.1 1054.915 1138.951 1055.592 1139.402
 cp_gemm                           1922 10.7    0.008    0.011 1073.476 1075.039
 cp_gemm_fm_gemm                   1922 11.7    0.012    0.016 1073.468 1075.028
 cp_fm_gemm                        1922 12.7 1073.456 1075.012 1073.456 1075.012
 cp_dbcsr_sm_fm_multiply           2644 10.9    0.108    0.131  877.359  881.890
 qs_scf_new_mos                     840  6.0    0.006    0.008  829.929  836.311
 qs_scf_loop_do_ot                  840  7.0    0.029    0.052  829.923  836.304
 ot_scf_mini                        840  8.0    0.071    0.118  699.935  704.244
 cp_dbcsr_sm_fm_multiply_core      2644 11.9    0.049    0.078  628.546  645.570
 density_rs2pw                     1684  8.0    0.127    0.146  462.593  546.242
 rs_pw_transfer                   12744 10.0    0.139    0.171  358.855  442.046
 qs_ot_get_orbitals_ref            1680  9.0    0.032    0.043  412.646  414.179
 init_scf_loop                       23  5.0    0.004    0.005  378.552  379.130
 pw_transfer                      16526  9.9    1.140    1.329  318.400  322.248
 mp_waitall_1                   1609719 14.6  253.184  320.112  253.184  320.112
 qs_vxc_create                      840  9.0    0.021    0.029  312.643  313.142
 fft_wrap_pw1pw2                  14846 10.9    0.126    0.145  308.932  312.324
 fft_wrap_pw1pw2_400               4662 11.5   32.836   33.968  286.092  290.466
 ot_mini                            840  9.0    0.008    0.010  285.911  290.374
 cp_dbcsr_plus_fm_fm_t_native       864 11.0    0.039    0.055  271.555  285.026
 rs_pw_transfer_RS2PW_400          1694 10.0   55.583   63.464  182.993  265.016
 mp_waitany                      234848 12.0  157.429  246.726  157.429  246.726
 multiply_cannon_metrocomm3      358720 14.1    1.232    1.324  166.002  237.611
 dbcsr_complete_redistribute      14419 12.7   86.318   92.773  226.648  233.657
 make_m2s                         35872 12.1    1.328    1.528  223.255  231.695
 copy_dbcsr_to_fm                  6215 11.7    0.210    0.241  201.271  226.588
 fft3d_ps                         14846 12.9  129.447  133.336  222.122  225.190
 ot_new_cg_direction                430 10.0    0.014    0.016  217.583  217.986
 mp_alltoall_d11v                 64457 13.8  175.615  217.537  175.615  217.537
 xc_vxc_pw_create                   430 10.0   31.392   32.260  215.218  215.581
 apply_preconditioner_dbcsr         860 11.0    0.007    0.011  209.967  213.089
 apply_all                          860 12.0    0.228    0.267  209.960  213.084
 xc_rho_set_and_dset_create         840 11.0   19.398   19.870  205.283  206.820
 make_images                      35872 13.1    4.646    5.149  197.992  204.836
 prepare_preconditioner              23  6.0    0.000    0.000  199.783  200.374
 potential_pw2rs                    862 11.0    0.144    0.153  196.054  196.703
 copy_fm_to_dbcsr                  8204 11.7    0.139    0.196  178.805  186.363
 make_preconditioner                 46  7.0    0.001    0.001  183.319  183.715
 pw_nn_compose_r                  10160 12.9  149.974  152.310  166.652  169.917
 make_full_all                       46  8.0    0.021    0.024  168.259  168.595
 -------------------------------------------------------------------------------

 The number of warnings for this run is : 141
 
 -------------------------------------------------------------------------------
  **** **** ******  **  PROGRAM ENDED AT                 2023-05-25 12:43:10.705
 ***** ** ***  *** **   PROGRAM RAN ON                                   node177
 **    ****   ******    PROGRAM RAN BY                                      wyin
 ***** **    ** ** **   PROGRAM PROCESS ID                                 17820
  **** **  *******  **  PROGRAM STOPPED IN /home/wyin/bozai/job/1-TiO2/1-Bulk/3-
                                           Marcus/3-Hab/2-40-71
