 DBCSR| CPU Multiplication driver                                           XSMM
 DBCSR| Multrec recursion limit                                              512
 DBCSR| Multiplication stack size                                           1000
 DBCSR| Maximum elements for images                                    UNLIMITED
 DBCSR| Multiplicative factor virtual images                                   1
 DBCSR| Use multiplication densification                                       T
 DBCSR| Multiplication size stacks                                             3
 DBCSR| Use memory pool for CPU allocation                                     F
 DBCSR| Number of 3D layers                                               SINGLE
 DBCSR| Use MPI memory allocation                                              F
 DBCSR| Use RMA algorithm                                                      F
 DBCSR| Use Communication thread                                               T
 DBCSR| Communication thread load                                             87
 DBCSR| MPI: My node id                                                        0
 DBCSR| MPI: Number of nodes                                                  40
 DBCSR| OMP: Current number of threads                                         1
 DBCSR| OMP: Max number of threads                                             1
 DBCSR| Split modifier for TAS multiplication algorithm                  1.0E+00


  **** **** ******  **  PROGRAM STARTED AT               2023-05-19 09:01:09.901
 ***** ** ***  *** **   PROGRAM STARTED ON                               node168
 **    ****   ******    PROGRAM STARTED BY                                  wyin
 ***** **    ** ** **   PROGRAM PROCESS ID                                  8100
  **** **  *******  **  PROGRAM STARTED IN /home/wyin/bozai/job/1-TiO2/2-slab-11
                                           0/1-pure/3-Marcus/2-lamuda/3-40-44

 CP2K| version string:                                       CP2K version 2022.1
 CP2K| source code revision number:                                  git:2caeb6f
 CP2K| cp2kflags: omp libint fftw3 libxc elpa parallel mpi3 scalapack xsmm plume
 CP2K|            d2 spglib mkl libvori libbqb
 CP2K| is freely available from                            https://www.cp2k.org/
 CP2K| Program compiled at                          Mon Mar 13 16:18:57 CET 2023
 CP2K| Program compiled on                                               login02
 CP2K| Program compiled for                                                local
 CP2K| Data directory path                   /home/wyin/package/cp2k-2022.1/data
 CP2K| Input file name                                                 input.inp
 
 GLOBAL| Force Environment number                                              1
 GLOBAL| Basis set file name            /home/wyin/bozai/Bootstrap/BASIS_SET/BAS
 GLOBAL| Potential file name            /home/wyin/bozai/Bootstrap/BASIS_SET/GTH
 GLOBAL| MM Potential file name                                     MM_POTENTIAL
 GLOBAL| Coordinate file name                                           Ti44.xyz
 GLOBAL| Method name                                                        CP2K
 GLOBAL| Project name                                                    PROJECT
 GLOBAL| Run type                                                        GEO_OPT
 GLOBAL| FFT library                                                       FFTW3
 GLOBAL| Diagonalization library                                            ELPA
 GLOBAL| Minimum number of eigenvectors for ELPA usage                        16
 GLOBAL| Orthonormality check for eigenvectors                          DISABLED
 GLOBAL| Matrix multiplication library                                 ScaLAPACK
 GLOBAL| All-to-all communication in single precision                          F
 GLOBAL| FFTs using library dependent lengths                                  F
 GLOBAL| Grid backend                                                       AUTO
 GLOBAL| Global print level                                               MEDIUM
 GLOBAL| MPI I/O enabled                                                       T
 GLOBAL| Total number of message passing processes                            40
 GLOBAL| Number of threads for this process                                    1
 GLOBAL| This output is from process                                           0
 GLOBAL| Stack size for threads created by OpenMP (OMP_STACKSIZE)        default
 GLOBAL| CPU model name                Intel(R) Xeon(R) CPU E5-2640 v4 @ 2.40GHz
 GLOBAL| CPUID                                                              1002
 GLOBAL| Compiled for CPUID                                                 1001

 *** HINT in environment.F:869 :: The compiler target flags (x86_avx) used ***
 *** to build this binary cannot exploit all extensions of this CPU model  ***
 *** (x86_avx2). Consider compiler target flags as part of FCFLAGS and     ***
 *** CFLAGS (ARCH file).                                                   ***


 MEMORY| system memory details [Kb]
 MEMORY|                        rank 0           min           max       average
 MEMORY| MemTotal            197799132     197799132     197799256     197799194
 MEMORY| MemFree             192414760     191573624     192414760     191994192
 MEMORY| Buffers                 20836         18832         20836         19834
 MEMORY| Cached                 370636        369772        370636        370204
 MEMORY| Slab                   130220        116544        130220        123382
 MEMORY| SReclaimable            47008         42540         47008         44774
 MEMORY| MemLikelyFree       192853240     192004768     192853240     192429004


 *** Fundamental physical constants (SI units) ***

 *** Literature: B. J. Mohr and B. N. Taylor,
 ***             CODATA recommended values of the fundamental physical
 ***             constants: 2006, Web Version 5.1
 ***             http://physics.nist.gov/constants

 Speed of light in vacuum [m/s]                             2.99792458000000E+08
 Magnetic constant or permeability of vacuum [N/A**2]       1.25663706143592E-06
 Electric constant or permittivity of vacuum [F/m]          8.85418781762039E-12
 Planck constant (h) [J*s]                                  6.62606896000000E-34
 Planck constant (h-bar) [J*s]                              1.05457162825177E-34
 Elementary charge [C]                                      1.60217648700000E-19
 Electron mass [kg]                                         9.10938215000000E-31
 Electron g factor [ ]                                     -2.00231930436220E+00
 Proton mass [kg]                                           1.67262163700000E-27
 Fine-structure constant                                    7.29735253760000E-03
 Rydberg constant [1/m]                                     1.09737315685270E+07
 Avogadro constant [1/mol]                                  6.02214179000000E+23
 Boltzmann constant [J/K]                                   1.38065040000000E-23
 Atomic mass unit [kg]                                      1.66053878200000E-27
 Bohr radius [m]                                            5.29177208590000E-11

 *** Conversion factors ***

 [u] -> [a.u.]                                              1.82288848426455E+03
 [Angstrom] -> [Bohr] = [a.u.]                              1.88972613288564E+00
 [a.u.] = [Bohr] -> [Angstrom]                              5.29177208590000E-01
 [a.u.] -> [s]                                              2.41888432650478E-17
 [a.u.] -> [fs]                                             2.41888432650478E-02
 [a.u.] -> [J]                                              4.35974393937059E-18
 [a.u.] -> [N]                                              8.23872205491840E-08
 [a.u.] -> [K]                                              3.15774647902944E+05
 [a.u.] -> [kJ/mol]                                         2.62549961709828E+03
 [a.u.] -> [kcal/mol]                                       6.27509468713739E+02
 [a.u.] -> [Pa]                                             2.94210107994716E+13
 [a.u.] -> [bar]                                            2.94210107994716E+08
 [a.u.] -> [atm]                                            2.90362800883016E+08
 [a.u.] -> [eV]                                             2.72113838565563E+01
 [a.u.] -> [Hz]                                             6.57968392072181E+15
 [a.u.] -> [1/cm] (wave numbers)                            2.19474631370540E+05
 [a.u./Bohr**2] -> [1/cm]                                   5.14048714338585E+03
 

 CELL_TOP| Volume [angstrom^3]:                                      3844.865420
 CELL_TOP| Vector a [angstrom    12.994     0.000     0.000   |a| =    12.993800
 CELL_TOP| Vector b [angstrom     0.000    11.836     0.000   |b| =    11.836000
 CELL_TOP| Vector c [angstrom     0.000     0.000    25.000   |c| =    25.000000
 CELL_TOP| Angle (b,c), alpha [degree]:                                90.000000
 CELL_TOP| Angle (a,c), beta  [degree]:                                90.000000
 CELL_TOP| Angle (a,b), gamma [degree]:                                90.000000
 CELL_TOP| Numerically orthorhombic:                                         YES
 
 GENERATE|  Preliminary Number of Bonds generated:                             0
 GENERATE|  Achieved consistency in connectivity generation.

 CELL| Volume [angstrom^3]:                                          3844.865420
 CELL| Vector a [angstrom]:      12.994     0.000     0.000   |a| =    12.993800
 CELL| Vector b [angstrom]:       0.000    11.836     0.000   |b| =    11.836000
 CELL| Vector c [angstrom]:       0.000     0.000    25.000   |c| =    25.000000
 CELL| Angle (b,c), alpha [degree]:                                    90.000000
 CELL| Angle (a,c), beta  [degree]:                                    90.000000
 CELL| Angle (a,b), gamma [degree]:                                    90.000000
 CELL| Numerically orthorhombic:                                             YES

 CELL_REF| Volume [angstrom^3]:                                      3844.865420
 CELL_REF| Vector a [angstrom    12.994     0.000     0.000   |a| =    12.993800
 CELL_REF| Vector b [angstrom     0.000    11.836     0.000   |b| =    11.836000
 CELL_REF| Vector c [angstrom     0.000     0.000    25.000   |c| =    25.000000
 CELL_REF| Angle (b,c), alpha [degree]:                                90.000000
 CELL_REF| Angle (a,c), beta  [degree]:                                90.000000
 CELL_REF| Angle (a,b), gamma [degree]:                                90.000000
 CELL_REF| Numerically orthorhombic:                                         YES

 *******************************************************************************
 *******************************************************************************
 **                                                                           **
 **     #####                         ##              ##                      **
 **    ##   ##            ##          ##              ##                      **
 **   ##     ##                       ##            ######                    **
 **   ##     ##  ##   ##  ##   #####  ##  ##   ####   ##    #####    #####    **
 **   ##     ##  ##   ##  ##  ##      ## ##   ##      ##   ##   ##  ##   ##   **
 **   ##  ## ##  ##   ##  ##  ##      ####     ###    ##   ######   ######    **
 **    ##  ###   ##   ##  ##  ##      ## ##      ##   ##   ##       ##        **
 **     #######   #####   ##   #####  ##  ##  ####    ##    #####   ##        **
 **           ##                                                    ##        **
 **                                                                           **
 **                                                ... make the atoms dance   **
 **                                                                           **
 **            Copyright (C) by CP2K developers group (2000-2022)             **
 **                      J. Chem. Phys. 152, 194103 (2020)                    **
 **                                                                           **
 *******************************************************************************

 DFT| Spin unrestricted (spin-polarized) Kohn-Sham calculation               UKS
 DFT| Multiplicity                                                             2
 DFT| Number of spin states                                                    2
 DFT| Charge                                                                  -1
 DFT| Self-interaction correction (SIC)                                       NO
 DFT| Cutoffs: density                                              1.000000E-10
 DFT|          gradient                                             1.000000E-10
 DFT|          tau                                                  1.000000E-10
 DFT|          cutoff_smoothing_range                               0.000000E+00
 DFT| XC density smoothing                                                  NN10
 DFT| XC derivatives                                              SPLINE2_SMOOTH

 DFT+U| Method                                                            LOWDIN
 DFT+U| Check atomic kind information for details

 FUNCTIONAL| PBE:
 FUNCTIONAL| J.P.Perdew, K.Burke, M.Ernzerhof, Phys. Rev. Letter, vol. 77, n 18,
 FUNCTIONAL|  pp. 3865-3868, (1996){spin polarized}                             

 vdW POTENTIAL|                                                   Pair Potential
 vdW POTENTIAL|          DFT-D3 (Version 3.1)
 vdW POTENTIAL|          Potential Form: S. Grimme et al, JCP 132: 154104 (2010)
 vdW POTENTIAL|          Zero Damping
 vdW POTENTIAL|          Cutoff Radius [Bohr]:                             20.00
 vdW POTENTIAL|          s6 Scaling Factor:                               1.0000
 vdW POTENTIAL|          sr6 Scaling Factor:                              1.2170
 vdW POTENTIAL|          s8 Scaling Factor:                               0.7220
 vdW POTENTIAL|          Cutoff for CN calculation:                   0.1000E-05

 QS| Method:                                                                 GPW
 QS| Density plane wave grid type                        NON-SPHERICAL FULLSPACE
 QS| Number of grid levels:                                                    5
 QS| Density cutoff [a.u.]:                                                250.0
 QS| Using commensurate multigrids
 QS| Multi grid cutoff [a.u.]: 1) grid level                               250.0
 QS|                           2) grid level                                62.5
 QS|                           3) grid level                                15.6
 QS|                           4) grid level                                 3.9
 QS|                           5) grid level                                 1.0
 QS| Grid level progression factor:                                          4.0
 QS| Relative density cutoff [a.u.]:                                        20.0
 QS| Interaction thresholds: eps_pgf_orb:                                1.0E-06
 QS|                         eps_filter_matrix:                          0.0E+00
 QS|                         eps_core_charge:                            1.0E-14
 QS|                         eps_rho_gspace:                             1.0E-12
 QS|                         eps_rho_rspace:                             1.0E-12
 QS|                         eps_gvg_rspace:                             1.0E-06
 QS|                         eps_ppl:                                    1.0E-02
 QS|                         eps_ppnl:                                   1.0E-08


 ATOMIC KIND INFORMATION

  1. Atomic kind: Ti                                    Number of atoms:      64

     Orbital Basis Set                                        DZVP-MOLOPT-SR-GTH

       Number of orbital shell sets:                                           1
       Number of orbital shells:                                               8
       Number of primitive Cartesian functions:                                6
       Number of Cartesian basis functions:                                   31
       Number of spherical basis functions:                                   26
       Norm type:                                                              2

       Normalised Cartesian orbitals:

                        Set   Shell   Orbital            Exponent    Coefficient

                          1       1    2s                7.884570       0.015554
                                                         3.894698       0.963603
                                                         1.513589      -0.631435
                                                         0.596768      -0.343022
                                                         0.222222      -0.006534
                                                         0.077078       0.007652

                          1       2    3s                7.884570      -0.009340
                                                         3.894698       0.212624
                                                         1.513589      -0.258368
                                                         0.596768      -0.226206
                                                         0.222222       0.039438
                                                         0.077078       0.107179

                          1       3    4s                7.884570       0.276563
                                                         3.894698       0.105452
                                                         1.513589       0.085149
                                                         0.596768       0.882541
                                                         0.222222      -0.696223
                                                         0.077078       0.156638

                          1       4    3px               7.884570      -2.034794
                                                         3.894698       0.782008
                                                         1.513589       1.253903
                                                         0.596768       0.347823
                                                         0.222222       0.016778
                                                         0.077078      -0.000433
                          1       4    3py               7.884570      -2.034794
                                                         3.894698       0.782008
                                                         1.513589       1.253903
                                                         0.596768       0.347823
                                                         0.222222       0.016778
                                                         0.077078      -0.000433
                          1       4    3pz               7.884570      -2.034794
                                                         3.894698       0.782008
                                                         1.513589       1.253903
                                                         0.596768       0.347823
                                                         0.222222       0.016778
                                                         0.077078      -0.000433

                          1       5    4px               7.884570       0.376572
                                                         3.894698      -0.182875
                                                         1.513589      -0.474776
                                                         0.596768      -0.081757
                                                         0.222222       0.064432
                                                         0.077078       0.047279
                          1       5    4py               7.884570       0.376572
                                                         3.894698      -0.182875
                                                         1.513589      -0.474776
                                                         0.596768      -0.081757
                                                         0.222222       0.064432
                                                         0.077078       0.047279
                          1       5    4pz               7.884570       0.376572
                                                         3.894698      -0.182875
                                                         1.513589      -0.474776
                                                         0.596768      -0.081757
                                                         0.222222       0.064432
                                                         0.077078       0.047279

                          1       6    4dx2              7.884570       3.047350
                                                         3.894698       3.289529
                                                         1.513589       1.060616
                                                         0.596768       0.249930
                                                         0.222222       0.038806
                                                         0.077078       0.002319
                          1       6    4dxy              7.884570       5.278165
                                                         3.894698       5.697631
                                                         1.513589       1.837041
                                                         0.596768       0.432892
                                                         0.222222       0.067214
                                                         0.077078       0.004017
                          1       6    4dxz              7.884570       5.278165
                                                         3.894698       5.697631
                                                         1.513589       1.837041
                                                         0.596768       0.432892
                                                         0.222222       0.067214
                                                         0.077078       0.004017
                          1       6    4dy2              7.884570       3.047350
                                                         3.894698       3.289529
                                                         1.513589       1.060616
                                                         0.596768       0.249930
                                                         0.222222       0.038806
                                                         0.077078       0.002319
                          1       6    4dyz              7.884570       5.278165
                                                         3.894698       5.697631
                                                         1.513589       1.837041
                                                         0.596768       0.432892
                                                         0.222222       0.067214
                                                         0.077078       0.004017
                          1       6    4dz2              7.884570       3.047350
                                                         3.894698       3.289529
                                                         1.513589       1.060616
                                                         0.596768       0.249930
                                                         0.222222       0.038806
                                                         0.077078       0.002319

                          1       7    5dx2              7.884570      -2.119015
                                                         3.894698      -1.237751
                                                         1.513589      -0.746777
                                                         0.596768      -0.071514
                                                         0.222222       0.004086
                                                         0.077078       0.017595
                          1       7    5dxy              7.884570      -3.670241
                                                         3.894698      -2.143848
                                                         1.513589      -1.293455
                                                         0.596768      -0.123865
                                                         0.222222       0.007077
                                                         0.077078       0.030475
                          1       7    5dxz              7.884570      -3.670241
                                                         3.894698      -2.143848
                                                         1.513589      -1.293455
                                                         0.596768      -0.123865
                                                         0.222222       0.007077
                                                         0.077078       0.030475
                          1       7    5dy2              7.884570      -2.119015
                                                         3.894698      -1.237751
                                                         1.513589      -0.746777
                                                         0.596768      -0.071514
                                                         0.222222       0.004086
                                                         0.077078       0.017595
                          1       7    5dyz              7.884570      -3.670241
                                                         3.894698      -2.143848
                                                         1.513589      -1.293455
                                                         0.596768      -0.123865
                                                         0.222222       0.007077
                                                         0.077078       0.030475
                          1       7    5dz2              7.884570      -2.119015
                                                         3.894698      -1.237751
                                                         1.513589      -0.746777
                                                         0.596768      -0.071514
                                                         0.222222       0.004086
                                                         0.077078       0.017595

                          1       8    5fx3              7.884570      -0.342058
                                                         3.894698       0.375798
                                                         1.513589      -0.706469
                                                         0.596768      -0.229994
                                                         0.222222      -0.012723
                                                         0.077078       0.003932
                          1       8    5fx2y             7.884570      -0.764866
                                                         3.894698       0.840310
                                                         1.513589      -1.579712
                                                         0.596768      -0.514282
                                                         0.222222      -0.028450
                                                         0.077078       0.008792
                          1       8    5fx2z             7.884570      -0.764866
                                                         3.894698       0.840310
                                                         1.513589      -1.579712
                                                         0.596768      -0.514282
                                                         0.222222      -0.028450
                                                         0.077078       0.008792
                          1       8    5fxy2             7.884570      -0.764866
                                                         3.894698       0.840310
                                                         1.513589      -1.579712
                                                         0.596768      -0.514282
                                                         0.222222      -0.028450
                                                         0.077078       0.008792
                          1       8    5fxyz             7.884570      -1.324787
                                                         3.894698       1.455460
                                                         1.513589      -2.736142
                                                         0.596768      -0.890763
                                                         0.222222      -0.049276
                                                         0.077078       0.015229
                          1       8    5fxz2             7.884570      -0.764866
                                                         3.894698       0.840310
                                                         1.513589      -1.579712
                                                         0.596768      -0.514282
                                                         0.222222      -0.028450
                                                         0.077078       0.008792
                          1       8    5fy3              7.884570      -0.342058
                                                         3.894698       0.375798
                                                         1.513589      -0.706469
                                                         0.596768      -0.229994
                                                         0.222222      -0.012723
                                                         0.077078       0.003932
                          1       8    5fy2z             7.884570      -0.764866
                                                         3.894698       0.840310
                                                         1.513589      -1.579712
                                                         0.596768      -0.514282
                                                         0.222222      -0.028450
                                                         0.077078       0.008792
                          1       8    5fyz2             7.884570      -0.764866
                                                         3.894698       0.840310
                                                         1.513589      -1.579712
                                                         0.596768      -0.514282
                                                         0.222222      -0.028450
                                                         0.077078       0.008792
                          1       8    5fz3              7.884570      -0.342058
                                                         3.894698       0.375798
                                                         1.513589      -0.706469
                                                         0.596768      -0.229994
                                                         0.222222      -0.012723
                                                         0.077078       0.003932

       Atomic covalent radius [Angstrom]:                                  1.320

       Atomic van der Waals radius [Angstrom]:                             1.760

     GTH Potential information for                                   GTH-PBE-q12

       Description:                       Goedecker-Teter-Hutter pseudopotential
                                           Goedecker et al., PRB 54, 1703 (1996)
                                          Hartwigsen et al., PRB 58, 3641 (1998)
                                                      Krack, TCA 114, 145 (2005)

       Gaussian exponent of the core charge distribution:               3.462604
       Electronic configuration (s p d ...):                           4   6   2

       Parameters of the local part of the GTH pseudopotential:

                          rloc        C1          C2          C3          C4
                        0.380000    8.711442   -0.700287

       Parameters of the non-local part of the GTH pseudopotential:

                   l      r(l)      h(i,j,l)

                   0    0.337771    2.575264    3.692971
                                    3.692971   -4.767605
                   1    0.242531   -4.630541    8.870875
                                    8.870875  -10.496161
                   2    0.243317   -9.406653

     A DFT+U correction is applied to atoms of this atomic kind:
       Angular quantum momentum number L:                                      2
       U(eff) = (U - J) value in [eV]:                                     4.200

  2. Atomic kind: O                                     Number of atoms:     128

     Orbital Basis Set                                        DZVP-MOLOPT-SR-GTH

       Number of orbital shell sets:                                           1
       Number of orbital shells:                                               5
       Number of primitive Cartesian functions:                                5
       Number of Cartesian basis functions:                                   14
       Number of spherical basis functions:                                   13
       Norm type:                                                              2

       Normalised Cartesian orbitals:

                        Set   Shell   Orbital            Exponent    Coefficient

                          1       1    2s               10.389228       0.396646
                                                         3.849621       0.208811
                                                         1.388401      -0.301641
                                                         0.496955      -0.274061
                                                         0.162492      -0.033677

                          1       2    3s               10.389228       0.303673
                                                         3.849621       0.240943
                                                         1.388401      -0.313066
                                                         0.496955      -0.043055
                                                         0.162492       0.213991

                          1       3    3px              10.389228      -1.530415
                                                         3.849621      -1.371928
                                                         1.388401      -0.761951
                                                         0.496955      -0.253695
                                                         0.162492      -0.035541
                          1       3    3py              10.389228      -1.530415
                                                         3.849621      -1.371928
                                                         1.388401      -0.761951
                                                         0.496955      -0.253695
                                                         0.162492      -0.035541
                          1       3    3pz              10.389228      -1.530415
                                                         3.849621      -1.371928
                                                         1.388401      -0.761951
                                                         0.496955      -0.253695
                                                         0.162492      -0.035541

                          1       4    4px              10.389228      -0.565392
                                                         3.849621      -0.038231
                                                         1.388401      -0.382373
                                                         0.496955       0.179070
                                                         0.162492       0.122714
                          1       4    4py              10.389228      -0.565392
                                                         3.849621      -0.038231
                                                         1.388401      -0.382373
                                                         0.496955       0.179070
                                                         0.162492       0.122714
                          1       4    4pz              10.389228      -0.565392
                                                         3.849621      -0.038231
                                                         1.388401      -0.382373
                                                         0.496955       0.179070
                                                         0.162492       0.122714

                          1       5    4dx2             10.389228       1.867377
                                                         3.849621       0.670994
                                                         1.388401       1.353441
                                                         0.496955       0.273538
                                                         0.162492       0.006620
                          1       5    4dxy             10.389228       3.234392
                                                         3.849621       1.162195
                                                         1.388401       2.344229
                                                         0.496955       0.473781
                                                         0.162492       0.011466
                          1       5    4dxz             10.389228       3.234392
                                                         3.849621       1.162195
                                                         1.388401       2.344229
                                                         0.496955       0.473781
                                                         0.162492       0.011466
                          1       5    4dy2             10.389228       1.867377
                                                         3.849621       0.670994
                                                         1.388401       1.353441
                                                         0.496955       0.273538
                                                         0.162492       0.006620
                          1       5    4dyz             10.389228       3.234392
                                                         3.849621       1.162195
                                                         1.388401       2.344229
                                                         0.496955       0.473781
                                                         0.162492       0.011466
                          1       5    4dz2             10.389228       1.867377
                                                         3.849621       0.670994
                                                         1.388401       1.353441
                                                         0.496955       0.273538
                                                         0.162492       0.006620

       Atomic covalent radius [Angstrom]:                                  0.730

       Atomic van der Waals radius [Angstrom]:                             1.520

     GTH Potential information for                                    GTH-PBE-q6

       Description:                       Goedecker-Teter-Hutter pseudopotential
                                           Goedecker et al., PRB 54, 1703 (1996)
                                          Hartwigsen et al., PRB 58, 3641 (1998)
                                                      Krack, TCA 114, 145 (2005)

       Gaussian exponent of the core charge distribution:               8.360253
       Electronic configuration (s p d ...):                               2   4

       Parameters of the local part of the GTH pseudopotential:

                          rloc        C1          C2          C3          C4
                        0.244554  -16.667215    2.487311

       Parameters of the non-local part of the GTH pseudopotential:

                   l      r(l)      h(i,j,l)

                   0    0.220956   18.337458
                   1    0.211332


 MOLECULE KIND INFORMATION


 All atoms are their own molecule, skipping detailed information


 TOTAL NUMBERS AND MAXIMUM NUMBERS

  Total number of            - Atomic kinds:                                   2
                             - Atoms:                                        192
                             - Shell sets:                                   192
                             - Shells:                                      1152
                             - Primitive Cartesian functions:               1024
                             - Cartesian basis functions:                   3776
                             - Spherical basis functions:                   3328

  Maximum angular momentum of- Orbital basis functions:                        3
                             - Local part of the GTH pseudopotential:          2
                             - Non-local part of the GTH pseudopotential:      3


 MODULE QUICKSTEP:  ATOMIC COORDINATES IN angstrom

 Atom  Kind  Element       X           Y           Z          Z(eff)       Mass
    1   1 Ti  22       1.624215    1.479491    7.819598      12.0000     47.8670
    2   1 Ti  22       4.872427    1.479486   17.218290      12.0000     47.8670
    3   1 Ti  22       4.871318    1.479491   10.655786      12.0000     47.8670
    4   1 Ti  22       1.624223    1.479487   14.411273      12.0000     47.8670
    5   1 Ti  22       4.872210   -0.000240    7.342748      12.0000     47.8670
    6   1 Ti  22       1.624223   -0.000479   17.721691      12.0000     47.8670
    7   1 Ti  22       1.624218    0.000249   11.038840      12.0000     47.8670
    8   1 Ti  22       4.876885    0.001213   14.003220      12.0000     47.8670
    9   1 Ti  22       8.121106    1.479486    7.813242      12.0000     47.8670
   10   1 Ti  22      11.369818    1.479486   17.218290      12.0000     47.8670
   11   1 Ti  22      11.370918    1.479491   10.655787      12.0000     47.8670
   12   1 Ti  22       8.121121    1.479489   14.407739      12.0000     47.8670
   13   1 Ti  22      11.370019   -0.000240    7.342749      12.0000     47.8670
   14   1 Ti  22       8.121123   -0.008529   17.714818      12.0000     47.8670
   15   1 Ti  22       8.121117    0.001684   11.031306      12.0000     47.8670
   16   1 Ti  22      11.365359    0.001213   14.003220      12.0000     47.8670
   17   1 Ti  22       1.624216    4.438889    7.820789      12.0000     47.8670
   18   1 Ti  22       4.867525    4.436710   17.218228      12.0000     47.8670
   19   1 Ti  22       4.870191    4.437031   10.659433      12.0000     47.8670
   20   1 Ti  22       1.624221    4.444359   14.408950      12.0000     47.8670
   21   1 Ti  22       4.872212    2.959220    7.342748      12.0000     47.8670
   22   1 Ti  22       1.624223    2.959453   17.721690      12.0000     47.8670
   23   1 Ti  22       1.624218    2.958729   11.038839      12.0000     47.8670
   24   1 Ti  22       4.876885    2.957765   14.003220      12.0000     47.8670
   25   1 Ti  22       8.121117    4.439395    7.816864      12.0000     47.8670
   26   1 Ti  22      11.374719    4.436710   17.218228      12.0000     47.8670
   27   1 Ti  22      11.372045    4.437031   10.659435      12.0000     47.8670
   28   1 Ti  22       8.121121    4.454941   14.409266      12.0000     47.8670
   29   1 Ti  22      11.370018    2.959220    7.342749      12.0000     47.8670
   30   1 Ti  22       8.121123    2.967501   17.714819      12.0000     47.8670
   31   1 Ti  22       8.121117    2.957290   11.031307      12.0000     47.8670
   32   1 Ti  22      11.365360    2.957766   14.003220      12.0000     47.8670
   33   1 Ti  22       1.624216    7.397491    7.821602      12.0000     47.8670
   34   1 Ti  22       4.876826    7.397486   17.212053      12.0000     47.8670
   35   1 Ti  22       4.872473    7.397491   10.660350      12.0000     47.8670
   36   1 Ti  22       1.624220    7.397488   14.406918      12.0000     47.8670
   37   1 Ti  22       4.872321    5.918019    7.344578      12.0000     47.8670
   38   1 Ti  22       1.624222    5.920073   17.712533      12.0000     47.8670
   39   1 Ti  22       1.624218    5.917974   11.040813      12.0000     47.8670
   40   1 Ti  22       4.893513    5.912736   13.999697      12.0000     47.8670
   41   1 Ti  22       8.121116    7.397489    7.821785      12.0000     47.8670
   42   1 Ti  22      11.365417    7.397486   17.212052      12.0000     47.8670
   43   1 Ti  22      11.369763    7.397490   10.660351      12.0000     47.8670
   44   1 Ti  22       8.121117    7.397481   14.385337      12.0000     47.8670
   45   1 Ti  22      11.369912    5.918019    7.344579      12.0000     47.8670
   46   1 Ti  22       8.121123    5.941669   17.714492      12.0000     47.8670
   47   1 Ti  22       8.121117    5.915692   11.040025      12.0000     47.8670
   48   1 Ti  22      11.348727    5.912736   13.999697      12.0000     47.8670
   49   1 Ti  22       1.624216   10.356093    7.820790      12.0000     47.8670
   50   1 Ti  22       4.867525   10.358261   17.218228      12.0000     47.8670
   51   1 Ti  22       4.870191   10.357950   10.659433      12.0000     47.8670
   52   1 Ti  22       1.624221   10.350615   14.408951      12.0000     47.8670
   53   1 Ti  22       4.872321    8.876961    7.344578      12.0000     47.8670
   54   1 Ti  22       1.624222    8.874901   17.712533      12.0000     47.8670
   55   1 Ti  22       1.624218    8.877003   11.040814      12.0000     47.8670
   56   1 Ti  22       4.893516    8.882242   13.999697      12.0000     47.8670
   57   1 Ti  22       8.121117   10.355581    7.816864      12.0000     47.8670
   58   1 Ti  22      11.374720   10.358262   17.218228      12.0000     47.8670
   59   1 Ti  22      11.372045   10.357951   10.659435      12.0000     47.8670
   60   1 Ti  22       8.121121   10.340036   14.409265      12.0000     47.8670
   61   1 Ti  22      11.369912    8.876961    7.344579      12.0000     47.8670
   62   1 Ti  22       8.121123    8.853302   17.714492      12.0000     47.8670
   63   1 Ti  22       8.121117    8.879281   11.040025      12.0000     47.8670
   64   1 Ti  22      11.348725    8.882242   13.999697      12.0000     47.8670
   65   2 O    8       1.624216    1.479489    9.614494       6.0000     15.9994
   66   2 O    8       1.624223    1.479487   16.242323       6.0000     15.9994
   67   2 O    8       4.854588    1.479487   15.418811       6.0000     15.9994
   68   2 O    8       4.873598    1.479491    8.820602       6.0000     15.9994
   69   2 O    8       4.871348    1.479490    6.268221       6.0000     15.9994
   70   2 O    8       4.858182    1.479489   12.843624       6.0000     15.9994
   71   2 O    8       1.624221    1.479487   18.795732       6.0000     15.9994
   72   2 O    8       1.624218    1.479490   12.177597       6.0000     15.9994
   73   2 O    8       0.404272   -0.000551    7.460372       6.0000     15.9994
   74   2 O    8       3.589974    0.001304   10.835826       6.0000     15.9994
   75   2 O    8       2.844157   -0.000551    7.460372       6.0000     15.9994
   76   2 O    8       6.149855    0.000623   10.840215       6.0000     15.9994
   77   2 O    8       6.091049    0.002562   17.564492       6.0000     15.9994
   78   2 O    8       2.897611    0.004765   14.197452       6.0000     15.9994
   79   2 O    8       3.652574   -0.000080   17.599538       6.0000     15.9994
   80   2 O    8       0.350832    0.004767   14.197456       6.0000     15.9994
   81   2 O    8       8.121115    1.479488    9.607715       6.0000     15.9994
   82   2 O    8       8.121124    1.479484   16.226503       6.0000     15.9994
   83   2 O    8      11.387654    1.479488   15.418811       6.0000     15.9994
   84   2 O    8      11.368633    1.479491    8.820604       6.0000     15.9994
   85   2 O    8      11.370877    1.479490    6.268222       6.0000     15.9994
   86   2 O    8      11.384062    1.479489   12.843624       6.0000     15.9994
   87   2 O    8       8.121122    1.479486   18.782718       6.0000     15.9994
   88   2 O    8       8.121105    1.479485   12.166140       6.0000     15.9994
   89   2 O    8       6.900838   -0.000910    7.457364       6.0000     15.9994
   90   2 O    8      10.092377    0.000623   10.840221       6.0000     15.9994
   91   2 O    8       9.341387   -0.000906    7.457365       6.0000     15.9994
   92   2 O    8      12.652259    0.001305   10.835824       6.0000     15.9994
   93   2 O    8      12.589671   -0.000080   17.599538       6.0000     15.9994
   94   2 O    8       9.407875    0.016033   14.185004       6.0000     15.9994
   95   2 O    8      10.151196    0.002562   17.564494       6.0000     15.9994
   96   2 O    8       6.834367    0.016033   14.185012       6.0000     15.9994
   97   2 O    8       1.624215    4.440527    9.616463       6.0000     15.9994
   98   2 O    8       1.624222    4.430592   16.238022       6.0000     15.9994
   99   2 O    8       4.848714    4.425852   15.420968       6.0000     15.9994
  100   2 O    8       4.872442    4.438913    8.823082       6.0000     15.9994
  101   2 O    8       4.872149    4.439383    6.269007       6.0000     15.9994
  102   2 O    8       4.845133    4.425622   12.839708       6.0000     15.9994
  103   2 O    8       1.624222    4.443262   18.791536       6.0000     15.9994
  104   2 O    8       1.624214    4.438111   12.180292       6.0000     15.9994
  105   2 O    8       0.404272    2.959532    7.460372       6.0000     15.9994
  106   2 O    8       3.589975    2.957677   10.835825       6.0000     15.9994
  107   2 O    8       2.844158    2.959532    7.460372       6.0000     15.9994
  108   2 O    8       6.149856    2.958357   10.840215       6.0000     15.9994
  109   2 O    8       6.091049    2.956405   17.564495       6.0000     15.9994
  110   2 O    8       2.897612    2.954207   14.197451       6.0000     15.9994
  111   2 O    8       3.652574    2.959051   17.599538       6.0000     15.9994
  112   2 O    8       0.350831    2.954205   14.197454       6.0000     15.9994
  113   2 O    8       8.121116    4.442049    9.612216       6.0000     15.9994
  114   2 O    8       8.121123    4.437148   16.235288       6.0000     15.9994
  115   2 O    8      11.393528    4.425851   15.420968       6.0000     15.9994
  116   2 O    8      11.369788    4.438913    8.823083       6.0000     15.9994
  117   2 O    8      11.370076    4.439383    6.269008       6.0000     15.9994
  118   2 O    8      11.397111    4.425622   12.839709       6.0000     15.9994
  119   2 O    8       8.121123    4.436073   18.785367       6.0000     15.9994
  120   2 O    8       8.121106    4.431589   12.167877       6.0000     15.9994
  121   2 O    8       6.900839    2.959887    7.457364       6.0000     15.9994
  122   2 O    8      10.092376    2.958357   10.840221       6.0000     15.9994
  123   2 O    8       9.341386    2.959882    7.457364       6.0000     15.9994
  124   2 O    8      12.652259    2.957676   10.835824       6.0000     15.9994
  125   2 O    8      12.589671    2.959052   17.599537       6.0000     15.9994
  126   2 O    8       9.407875    2.942946   14.185010       6.0000     15.9994
  127   2 O    8      10.151196    2.956404   17.564496       6.0000     15.9994
  128   2 O    8       6.834367    2.942945   14.185018       6.0000     15.9994
  129   2 O    8       1.624215    7.397489    9.617463       6.0000     15.9994
  130   2 O    8       1.624223    7.397488   16.235669       6.0000     15.9994
  131   2 O    8       4.890876    7.397488   15.411008       6.0000     15.9994
  132   2 O    8       4.875139    7.397491    8.824689       6.0000     15.9994
  133   2 O    8       4.871179    7.397490    6.270065       6.0000     15.9994
  134   2 O    8       4.871672    7.397489   12.845034       6.0000     15.9994
  135   2 O    8       1.624221    7.397487   18.790110       6.0000     15.9994
  136   2 O    8       1.624209    7.397486   12.182564       6.0000     15.9994
  137   2 O    8       0.404245    5.918421    7.461246       6.0000     15.9994
  138   2 O    8       3.591786    5.919516   10.841511       6.0000     15.9994
  139   2 O    8       2.844186    5.918421    7.461246       6.0000     15.9994
  140   2 O    8       6.152089    5.916276   10.846396       6.0000     15.9994
  141   2 O    8       6.083597    5.913288   17.595692       6.0000     15.9994
  142   2 O    8       2.896908    5.915746   14.204951       6.0000     15.9994
  143   2 O    8       3.646876    5.923613   17.564528       6.0000     15.9994
  144   2 O    8       0.351532    5.915746   14.204957       6.0000     15.9994
  145   2 O    8       8.121113    7.397486    9.618842       6.0000     15.9994
  146   2 O    8       8.121132    7.397482   16.290746       6.0000     15.9994
  147   2 O    8      11.351365    7.397489   15.411008       6.0000     15.9994
  148   2 O    8      11.367092    7.397491    8.824690       6.0000     15.9994
  149   2 O    8      11.371048    7.397490    6.270066       6.0000     15.9994
  150   2 O    8      11.370569    7.397489   12.845035       6.0000     15.9994
  151   2 O    8       8.121115    7.397484   18.824039       6.0000     15.9994
  152   2 O    8       8.121109    7.397484   12.188232       6.0000     15.9994
  153   2 O    8       6.901149    5.919116    7.459574       6.0000     15.9994
  154   2 O    8      10.090143    5.916276   10.846399       6.0000     15.9994
  155   2 O    8       9.341081    5.919116    7.459576       6.0000     15.9994
  156   2 O    8      12.650447    5.919515   10.841508       6.0000     15.9994
  157   2 O    8      12.595367    5.923613   17.564526       6.0000     15.9994
  158   2 O    8       9.448350    5.827508   14.178186       6.0000     15.9994
  159   2 O    8      10.158647    5.913288   17.595696       6.0000     15.9994
  160   2 O    8       6.793890    5.827507   14.178193       6.0000     15.9994
  161   2 O    8       1.624215   10.354451    9.616464       6.0000     15.9994
  162   2 O    8       1.624223   10.364381   16.238023       6.0000     15.9994
  163   2 O    8       4.848713   10.369125   15.420968       6.0000     15.9994
  164   2 O    8       4.872441   10.356068    8.823082       6.0000     15.9994
  165   2 O    8       4.872149   10.355596    6.269007       6.0000     15.9994
  166   2 O    8       4.845132   10.369357   12.839708       6.0000     15.9994
  167   2 O    8       1.624222   10.351712   18.791537       6.0000     15.9994
  168   2 O    8       1.624213   10.356864   12.180292       6.0000     15.9994
  169   2 O    8       0.404245    8.876560    7.461246       6.0000     15.9994
  170   2 O    8       3.591786    8.875465   10.841512       6.0000     15.9994
  171   2 O    8       2.844186    8.876560    7.461246       6.0000     15.9994
  172   2 O    8       6.152089    8.878704   10.846396       6.0000     15.9994
  173   2 O    8       6.083599    8.881681   17.595691       6.0000     15.9994
  174   2 O    8       2.896908    8.879227   14.204952       6.0000     15.9994
  175   2 O    8       3.646878    8.871357   17.564534       6.0000     15.9994
  176   2 O    8       0.351532    8.879227   14.204958       6.0000     15.9994
  177   2 O    8       8.121116   10.352925    9.612216       6.0000     15.9994
  178   2 O    8       8.121124   10.357826   16.235286       6.0000     15.9994
  179   2 O    8      11.393528   10.369126   15.420967       6.0000     15.9994
  180   2 O    8      11.369788   10.356069    8.823083       6.0000     15.9994
  181   2 O    8      11.370076   10.355597    6.269008       6.0000     15.9994
  182   2 O    8      11.397112   10.369357   12.839709       6.0000     15.9994
  183   2 O    8       8.121123   10.358897   18.785366       6.0000     15.9994
  184   2 O    8       8.121106   10.363382   12.167874       6.0000     15.9994
  185   2 O    8       6.901149    8.875863    7.459574       6.0000     15.9994
  186   2 O    8      10.090143    8.878704   10.846399       6.0000     15.9994
  187   2 O    8       9.341082    8.875863    7.459576       6.0000     15.9994
  188   2 O    8      12.650447    8.875465   10.841509       6.0000     15.9994
  189   2 O    8      12.595366    8.871357   17.564532       6.0000     15.9994
  190   2 O    8       9.448348    8.967466   14.178186       6.0000     15.9994
  191   2 O    8      10.158647    8.881683   17.595697       6.0000     15.9994
  192   2 O    8       6.793891    8.967467   14.178193       6.0000     15.9994




 SCF PARAMETERS         Density guess:                                   RESTART
                        --------------------------------------------------------
                        max_scf:                                             100
                        max_scf_history:                                       0
                        max_diis:                                              4
                        --------------------------------------------------------
                        eps_scf:                                        5.00E-07
                        eps_scf_history:                                0.00E+00
                        eps_diis:                                       1.00E-01
                        eps_eigval:                                     1.00E-05
                        --------------------------------------------------------
                        level_shift [a.u.]:                             0.000000
                        --------------------------------------------------------
                        Outer loop SCF in use 
                        No variables optimised in outer loop
                        eps_scf                                         5.00E-07
                        max_scf                                               20
                        DIIS optimization
                        DIIS buffer length                                     3
                        step_size                                       1.50E-01

 PW_GRID| Information for grid number                                          1
 PW_GRID| Grid distributed over                                    40 processors
 PW_GRID| Real space group dimensions                                    40    1
 PW_GRID| the grid is blocked:                                                NO
 PW_GRID| Cutoff [a.u.]                                                    250.0
 PW_GRID| spherical cutoff:                                                   NO
 PW_GRID|   Bounds   1            -96      95                Points:         192
 PW_GRID|   Bounds   2            -96      95                Points:         192
 PW_GRID|   Bounds   3           -192     191                Points:         384
 PW_GRID| Volume element (a.u.^3)  0.1833E-02     Volume (a.u.^3)     25946.4383
 PW_GRID| Grid span                                                    FULLSPACE
 PW_GRID|   Distribution                         Average         Max         Min
 PW_GRID|   G-Vectors                           353894.4      354048      353856
 PW_GRID|   G-Rays                                1843.2        1844        1843
 PW_GRID|   Real Space Points                   353894.4      368640      294912

 PW_GRID| Information for grid number                                          2
 PW_GRID| Number of the reference grid                                         1
 PW_GRID| Grid distributed over                                    40 processors
 PW_GRID| Real space group dimensions                                    40    1
 PW_GRID| the grid is blocked:                                                NO
 PW_GRID| Cutoff [a.u.]                                                     62.5
 PW_GRID| spherical cutoff:                                                   NO
 PW_GRID|   Bounds   1            -48      47                Points:          96
 PW_GRID|   Bounds   2            -48      47                Points:          96
 PW_GRID|   Bounds   3            -96      95                Points:         192
 PW_GRID| Volume element (a.u.^3)  0.1466E-01     Volume (a.u.^3)     25946.4383
 PW_GRID| Grid span                                                    FULLSPACE
 PW_GRID|   Distribution                         Average         Max         Min
 PW_GRID|   G-Vectors                            44236.8       45408       43296
 PW_GRID|   G-Rays                                 460.8         473         451
 PW_GRID|   Real Space Points                    44236.8       55296       36864

 PW_GRID| Information for grid number                                          3
 PW_GRID| Number of the reference grid                                         1
 PW_GRID| Grid distributed over                                    40 processors
 PW_GRID| Real space group dimensions                                    40    1
 PW_GRID| the grid is blocked:                                                NO
 PW_GRID| Cutoff [a.u.]                                                     15.6
 PW_GRID| spherical cutoff:                                                   NO
 PW_GRID|   Bounds   1            -24      23                Points:          48
 PW_GRID|   Bounds   2            -24      23                Points:          48
 PW_GRID|   Bounds   3            -48      47                Points:          96
 PW_GRID| Volume element (a.u.^3)  0.1173         Volume (a.u.^3)     25946.4383
 PW_GRID| Grid span                                                    FULLSPACE
 PW_GRID|   Distribution                         Average         Max         Min
 PW_GRID|   G-Vectors                             5529.6        5952        5040
 PW_GRID|   G-Rays                                 115.2         124         105
 PW_GRID|   Real Space Points                     5529.6        9216        4608

 PW_GRID| Information for grid number                                          4
 PW_GRID| Number of the reference grid                                         1
 PW_GRID| Grid distributed over                                    40 processors
 PW_GRID| Real space group dimensions                                    40    1
 PW_GRID| the grid is blocked:                                                NO
 PW_GRID| Cutoff [a.u.]                                                      3.9
 PW_GRID| spherical cutoff:                                                   NO
 PW_GRID|   Bounds   1            -12      11                Points:          24
 PW_GRID|   Bounds   2            -12      11                Points:          24
 PW_GRID|   Bounds   3            -24      23                Points:          48
 PW_GRID| Volume element (a.u.^3)  0.9385         Volume (a.u.^3)     25946.4383
 PW_GRID| Grid span                                                    FULLSPACE
 PW_GRID|   Distribution                         Average         Max         Min
 PW_GRID|   G-Vectors                              691.2         744         624
 PW_GRID|   G-Rays                                  28.8          31          26
 PW_GRID|   Real Space Points                      691.2        1152           0

 PW_GRID| Information for grid number                                          5
 PW_GRID| Number of the reference grid                                         1
 PW_GRID| Grid distributed over                                    40 processors
 PW_GRID| Real space group dimensions                                    40    1
 PW_GRID| the grid is blocked:                                                NO
 PW_GRID| Cutoff [a.u.]                                                      1.0
 PW_GRID| spherical cutoff:                                                   NO
 PW_GRID|   Bounds   1             -6       5                Points:          12
 PW_GRID|   Bounds   2             -6       5                Points:          12
 PW_GRID|   Bounds   3            -12      11                Points:          24
 PW_GRID| Volume element (a.u.^3)   7.508         Volume (a.u.^3)     25946.4383
 PW_GRID| Grid span                                                    FULLSPACE
 PW_GRID|   Distribution                         Average         Max         Min
 PW_GRID|   G-Vectors                               86.4         120          60
 PW_GRID|   G-Rays                                   7.2          10           5
 PW_GRID|   Real Space Points                       86.4         288           0

 POISSON| Solver                                                        PERIODIC
 POISSON| Periodicity                                                        XYZ

 RS_GRID| Information for grid number                                          1
 RS_GRID|   Bounds   1            -96      95                Points:         192
 RS_GRID|   Bounds   2            -96      95                Points:         192
 RS_GRID|   Bounds   3           -192     191                Points:         384
 RS_GRID| Real space distribution over                                  4 groups
 RS_GRID| Real space distribution along direction                              2
 RS_GRID| Border size                                                         28
 RS_GRID| Real space distribution over                                 10 groups
 RS_GRID| Real space distribution along direction                              3
 RS_GRID| Border size                                                         28
 RS_GRID|   Distribution                         Average         Max         Min
 RS_GRID|   Planes                                 104.0         104         104
 RS_GRID|   Distribution                         Average         Max         Min
 RS_GRID|   Planes                                  94.4          95          94

 RS_GRID| Information for grid number                                          2
 RS_GRID|   Bounds   1            -48      47                Points:          96
 RS_GRID|   Bounds   2            -48      47                Points:          96
 RS_GRID|   Bounds   3            -96      95                Points:         192
 RS_GRID| Real space distribution over                                  4 groups
 RS_GRID| Real space distribution along direction                              2
 RS_GRID| Border size                                                         33
 RS_GRID| Real space distribution over                                 10 groups
 RS_GRID| Real space distribution along direction                              3
 RS_GRID| Border size                                                         33
 RS_GRID|   Distribution                         Average         Max         Min
 RS_GRID|   Planes                                  90.0          90          90
 RS_GRID|   Distribution                         Average         Max         Min
 RS_GRID|   Planes                                  85.2          86          85

 RS_GRID| Information for grid number                                          3
 RS_GRID|   Bounds   1            -24      23                Points:          48
 RS_GRID|   Bounds   2            -24      23                Points:          48
 RS_GRID|   Bounds   3            -48      47                Points:          96
 RS_GRID| Real space fully replicated
 RS_GRID| Group size                                                           1

 RS_GRID| Information for grid number                                          4
 RS_GRID|   Bounds   1            -12      11                Points:          24
 RS_GRID|   Bounds   2            -12      11                Points:          24
 RS_GRID|   Bounds   3            -24      23                Points:          48
 RS_GRID| Real space fully replicated
 RS_GRID| Group size                                                           1

 RS_GRID| Information for grid number                                          5
 RS_GRID|   Bounds   1             -6       5                Points:          12
 RS_GRID|   Bounds   2             -6       5                Points:          12
 RS_GRID|   Bounds   3            -12      11                Points:          24
 RS_GRID| Real space fully replicated
 RS_GRID| Group size                                                           1

 BFGS| Use rational function optimization for step estimation:                NO
 BFGS| Use model Hessian for initial guess:                                  YES
 BFGS| Restart Hessian:                                                       NO
 BFGS| Trust radius:                                                       0.472

 *** WARNING in fm/cp_fm_elpa.F:521 :: Setting real_kernel for ELPA failed ***


 *******************************************************************************
 ***                     STARTING GEOMETRY OPTIMIZATION                      ***
 ***                                   BFGS                                  ***
 *******************************************************************************

 Spin 1

 Number of electrons:                                                        769
 Number of occupied orbitals:                                                769
 Number of molecular orbitals:                                               769

 Spin 2

 Number of electrons:                                                        768
 Number of occupied orbitals:                                                768
 Number of molecular orbitals:                                               768

 Number of orbital functions:                                               3328

 *** WARNING in fm/cp_fm_elpa.F:521 :: Setting real_kernel for ELPA failed ***

 Number of independent orbital functions:                                   3328

 Extrapolation method: initial_guess


 CDFT EXTERNAL SCF WAVEFUNCTION OPTIMIZATION

  ---------------------------------- CDFT --------------------------------------
  Optimizing a density constraint in an external SCF loop 
  
  Type of constraint:     Hirshfeld
  Number of constraints:          1
  Using fragment densities:       F
  
  Calculating atomic CDFT charges

  Minimizer               : Secant

  Reusing OT preconditioner:       F

  Hirshfeld constraint settings
  
  Shape function type:      Density

  ---------------------------------- CDFT --------------------------------------


 SCF WAVEFUNCTION OPTIMIZATION

  ----------------------------------- OT ---------------------------------------
  Minimizer      : CG                  : conjugate gradient
  Preconditioner : FULL_ALL            : diagonalization, state selective
  Precond_solver : DEFAULT
  Line search    : 2PNT                : 2 energies, one gradient
  stepsize       :    0.15000000                  energy_gap     :    0.00100000
  ortho_irac     : CHOL                           irac_degree    :             4
  max_irac       :            50                  eps_irac       :   0.10000E-09
  eps_irac_switch:   0.10000E-01                  eps_irac_quick_exit: 0.100E-04
  on_the_fly_loc : F
  ----------------------------------- OT ---------------------------------------

  Step     Update method      Time    Convergence         Total energy    Change
  ------------------------------------------------------------------------------

  ----------------------- CDFT group definitions -------------------------
    Atomic group    1 of     1
    Atom  Element  Coefficient
      40       Ti        1.000
  ------------------------------------------------------------------------

  ------------------- Hirshfeld constraint information -------------------
  Atomic group                :                                          1
  Type of constraint          :           Magnetization density constraint
  Target value of constraint  :                             1.000000000000
  Current value of constraint :                             0.011164495441
  Deviation from target       :                                 -9.888E-01
  Strength of constraint      :                            -0.027810367311
  ------------------------------------------------------------------------

  ------------------------------------------ CDFT atomic charges -------------------------------------------
  #Atom  Element   Is_constraint   Core charge    Population (alpha, beta)    Net charge      Spin population
     40       Ti               T        12.000         5.684         5.673         0.642                0.011

  Total Charge and Spin Moment:                                                    0.642                0.011


 *** WARNING in fm/cp_fm_elpa.F:521 :: Setting real_kernel for ELPA failed ***


 *** WARNING in fm/cp_fm_elpa.F:521 :: Setting real_kernel for ELPA failed ***


 *** WARNING in fm/cp_fm_elpa.F:521 :: Setting real_kernel for ELPA failed ***


 *** WARNING in fm/cp_fm_elpa.F:521 :: Setting real_kernel for ELPA failed ***


 *** WARNING in fm/cp_fm_elpa.F:521 :: Setting real_kernel for ELPA failed ***


 *** WARNING in fm/cp_fm_elpa.F:521 :: Setting real_kernel for ELPA failed ***

     1 OT CG       0.15E+00    9.6     0.00006066     -5775.8355714411 -5.78E+03

  ------------------- Hirshfeld constraint information -------------------
  Atomic group                :                                          1
  Type of constraint          :           Magnetization density constraint
  Target value of constraint  :                             1.000000000000
  Current value of constraint :                             0.072188612182
  Deviation from target       :                                 -9.278E-01
  Strength of constraint      :                            -0.027810367311
  ------------------------------------------------------------------------

  ------------------------------------------ CDFT atomic charges -------------------------------------------
  #Atom  Element   Is_constraint   Core charge    Population (alpha, beta)    Net charge      Spin population
     40       Ti               T        12.000         5.718         5.645         0.637                0.072

  Total Charge and Spin Moment:                                                    0.637                0.072

     2 OT LS       0.59E+00    3.8                    -5775.8380330683

  ------------------- Hirshfeld constraint information -------------------
  Atomic group                :                                          1
  Type of constraint          :           Magnetization density constraint
  Target value of constraint  :                             1.000000000000
  Current value of constraint :                             0.250277083100
  Deviation from target       :                                 -7.497E-01
  Strength of constraint      :                            -0.027810367311
  ------------------------------------------------------------------------

  ------------------------------------------ CDFT atomic charges -------------------------------------------
  #Atom  Element   Is_constraint   Core charge    Population (alpha, beta)    Net charge      Spin population
     40       Ti               T        12.000         5.817         5.567         0.616                0.250

  Total Charge and Spin Moment:                                                    0.616                0.250

     3 OT CG       0.59E+00    7.4     0.00005719     -5775.8410229629 -5.45E-03

  ------------------- Hirshfeld constraint information -------------------
  Atomic group                :                                          1
  Type of constraint          :           Magnetization density constraint
  Target value of constraint  :                             1.000000000000
  Current value of constraint :                             0.502317676659
  Deviation from target       :                                 -4.977E-01
  Strength of constraint      :                            -0.027810367311
  ------------------------------------------------------------------------

  ------------------------------------------ CDFT atomic charges -------------------------------------------
  #Atom  Element   Is_constraint   Core charge    Population (alpha, beta)    Net charge      Spin population
     40       Ti               T        12.000         5.895         5.393         0.711                0.502

  Total Charge and Spin Moment:                                                    0.711                0.502

     4 OT LS       0.11E+00    3.8                    -5775.8251568170

  ------------------- Hirshfeld constraint information -------------------
  Atomic group                :                                          1
  Type of constraint          :           Magnetization density constraint
  Target value of constraint  :                             1.000000000000
  Current value of constraint :                             0.297358983974
  Deviation from target       :                                 -7.026E-01
  Strength of constraint      :                            -0.027810367311
  ------------------------------------------------------------------------

  ------------------------------------------ CDFT atomic charges -------------------------------------------
  #Atom  Element   Is_constraint   Core charge    Population (alpha, beta)    Net charge      Spin population
     40       Ti               T        12.000         5.832         5.534         0.634                0.297

  Total Charge and Spin Moment:                                                    0.634                0.297

     5 OT CG       0.11E+00    7.3     0.00001268     -5775.8420074256 -9.84E-04

  ------------------- Hirshfeld constraint information -------------------
  Atomic group                :                                          1
  Type of constraint          :           Magnetization density constraint
  Target value of constraint  :                             1.000000000000
  Current value of constraint :                             0.299748837868
  Deviation from target       :                                 -7.003E-01
  Strength of constraint      :                            -0.027810367311
  ------------------------------------------------------------------------

  ------------------------------------------ CDFT atomic charges -------------------------------------------
  #Atom  Element   Is_constraint   Core charge    Population (alpha, beta)    Net charge      Spin population
     40       Ti               T        12.000         5.833         5.534         0.633                0.300

  Total Charge and Spin Moment:                                                    0.633                0.300

     6 OT LS       0.16E+00    3.8                    -5775.8420676135

  ------------------- Hirshfeld constraint information -------------------
  Atomic group                :                                          1
  Type of constraint          :           Magnetization density constraint
  Target value of constraint  :                             1.000000000000
  Current value of constraint :                             0.300911409559
  Deviation from target       :                                 -6.991E-01
[...]
 * /| |                                                                        *
 * / \                                           mpiwrap/message_passing.F:843 *
 *******************************************************************************


 *******************************************************************************
 *   ___                                                                       *
 *  /   \                                                                      *
 * [ABORT]                                                                     *
 *  \___/        mp_world_finalize: assert failed:  leaking communicators      *
 *    |                                                                        *
 *  O/|                                                                        *
 * /| |                                                                        *
 * / \                                           mpiwrap/message_passing.F:843 *
 *******************************************************************************


 *******************************************************************************
 *   ___                                                                       *
 *  /   \                                                                      *
 * [ABORT]                                                                     *
 *  \___/        mp_world_finalize: assert failed:  leaking communicators      *
 *    |                                                                        *
 *  O/|                                                                        *
 * /| |                                                                        *
 * / \                                           mpiwrap/message_passing.F:843 *
 *******************************************************************************


 *******************************************************************************
 *   ___                                                                       *
 *  /   \                                                                      *
 * [ABORT]                                                                     *
 *  \___/        mp_world_finalize: assert failed:  leaking communicators      *
 *    |                                                                        *
 *  O/|                                                                        *
 * /| |                                                                        *
 * / \                                           mpiwrap/message_passing.F:843 *
 *******************************************************************************


 *******************************************************************************
 *   ___                                                                       *
 *  /   \                                                                      *
 * [ABORT]                                                                     *
 *  \___/        mp_world_finalize: assert failed:  leaking communicators      *
 *    |                                                                        *
 *  O/|                                                                        *
 * /| |                                                                        *
 * / \                                           mpiwrap/message_passing.F:843 *
 *******************************************************************************

 * /| |                                                                        *
 * / \                                           mpiwrap/message_passing.F:843 *
 *******************************************************************************


 *******************************************************************************
 *   ___                                                                       *
 *  /   \                                                                      *
 * [ABORT]                                                                     *
 *  \___/        mp_world_finalize: assert failed:  leaking communicators      *
 *    |                                                                        *
 *  O/|                                                                        *
 * /| |                                                                        *
 * / \                                           mpiwrap/message_passing.F:843 *
 *******************************************************************************


 *******************************************************************************
 *   ___                                                                       *
 *  /   \                                                                      *
 * [ABORT]                                                                     *
 *  \___/        mp_world_finalize: assert failed:  leaking communicators      *
 *    |                                                                        *
 *  O/|                                                                        *
 * /| |                                                                        *
 * / \                                           mpiwrap/message_passing.F:843 *
 *******************************************************************************


 *******************************************************************************
 *   ___                                                                       *
 *  /   \                                                                      *
 * [ABORT]                                                                     *
 *  \___/        mp_world_finalize: assert failed:  leaking communicators      *
 *    |                                                                        *
 *  O/|                                                                        *
 * /| |                                                                        *
 * / \                                           mpiwrap/message_passing.F:843 *
 *******************************************************************************


 *******************************************************************************
 *   ___                                                                       *
 *  /   \                                                                      *
 * [ABORT]                                                                     *
 *  \___/        mp_world_finalize: assert failed:  leaking communicators      *
 *    |                                                                        *
 *  O/|                                                                        *
 * /| |                                                                        *
 * / \                                           mpiwrap/message_passing.F:843 *
 *******************************************************************************


 *******************************************************************************
 *   ___                                                                       *
 *  /   \                                                                      *
 * [ABORT]                                                                     *
 *  \___/        mp_world_finalize: assert failed:  leaking communicators      *
 *    |                                                                        *
 *  O/|                                                                        *
 * /| |                                                                        *
 * / \                                           mpiwrap/message_passing.F:843 *
 *******************************************************************************


 *******************************************************************************
 *   ___                                                                       *
 *  /   \                                                                      *
 * [ABORT]                                                                     *
 *  \___/        mp_world_finalize: assert failed:  leaking communicators      *
 *    |                                                                        *
 *  O/|                                                                        *
 * /| |                                                                        *
 * / \                                           mpiwrap/message_passing.F:843 *
 *******************************************************************************


 *******************************************************************************
 *   ___                                                                       *
 *  /   \                                                                      *
 * [ABORT]                                                                     *
 *  \___/        mp_world_finalize: assert failed:  leaking communicators      *
 *    |                                                                        *
 *  O/|                                                                        *
 * /| |                                                                        *
 * / \                                           mpiwrap/message_passing.F:843 *
 *******************************************************************************


 *******************************************************************************
 *   ___                                                                       *
 *  /   \                                                                      *
 * [ABORT]                                                                     *
 *  \___/        mp_world_finalize: assert failed:  leaking communicators      *
 *    |                                                                        *
 *  O/|                                                                        *
 * /| |                                                                        *
 * / \                                           mpiwrap/message_passing.F:843 *
 *******************************************************************************


 *******************************************************************************
 *   ___                                                                       *
 *  /   \                                                                      *
 * [ABORT]                                                                     *
 *  \___/        mp_world_finalize: assert failed:  leaking communicators      *
 *    |                                                                        *
 *  O/|                                                                        *
 * /| |                                                                        *
 * / \                                           mpiwrap/message_passing.F:843 *
 *******************************************************************************


 *******************************************************************************
 *   ___                                                                       *
 *  /   \                                                                      *
 * [ABORT]                                                                     *
 *  \___/        mp_world_finalize: assert failed:  leaking communicators      *
 *    |                                                                        *
 *  O/|                                                                        *
 * /| |                                                                        *
 * / \                                           mpiwrap/message_passing.F:843 *
 *******************************************************************************


 *******************************************************************************
 *   ___                                                                       *
 *  /   \                                                                      *
 * [ABORT]                                                                     *
 *  \___/        mp_world_finalize: assert failed:  leaking communicators      *
 *    |                                                                        *
 *  O/|                                                                        *
 * /| |                                                                        *
 * / \                                           mpiwrap/message_passing.F:843 *
 *******************************************************************************


 *******************************************************************************
 *   ___                                                                       *
 *  /   \                                                                      *
 * [ABORT]                                                                     *
 *  \___/        mp_world_finalize: assert failed:  leaking communicators      *
 *    |                                                                        *
 *  O/|                                                                        *
 * /| |                                                                        *
 * / \                                           mpiwrap/message_passing.F:843 *
 *******************************************************************************


 *******************************************************************************
 *   ___                                                                       *
 *  /   \                                                                      *
 * [ABORT]                                                                     *
 *  \___/        mp_world_finalize: assert failed:  leaking communicators      *
 *    |                                                                        *
 *  O/|                                                                        *
 * /| |                                                                        *
 * / \                                           mpiwrap/message_passing.F:843 *
 *******************************************************************************


 *******************************************************************************
 *   ___                                                                       *
 *  /   \                                                                      *
 * [ABORT]                                                                     *
 *  \___/        mp_world_finalize: assert failed:  leaking communicators      *
 *    |                                                                        *
 *  O/|                                                                        *
 * /| |                                                                        *
 * / \                                           mpiwrap/message_passing.F:843 *
 *******************************************************************************


 *******************************************************************************
 *   ___                                                                       *
 *  /   \                                                                      *
 * [ABORT]                                                                     *
 *  \___/        mp_world_finalize: assert failed:  leaking communicators      *
 *    |                                                                        *
 *  O/|                                                                        *
 * /| |                                                                        *
 * / \                                           mpiwrap/message_passing.F:843 *
 *******************************************************************************


 *******************************************************************************
 *   ___                                                                       *
 *  /   \                                                                      *
 * [ABORT]                                                                     *
 *  \___/        mp_world_finalize: assert failed:  leaking communicators      *
 *    |                                                                        *
 *  O/|                                                                        *
 * /| |                                                                        *
 * / \                                           mpiwrap/message_passing.F:843 *
 *******************************************************************************


 *******************************************************************************
 *   ___                                                                       *
 *  /   \                                                                      *
 * [ABORT]                                                                     *
 *  \___/        mp_world_finalize: assert failed:  leaking communicators      *
 *    |                                                                        *
 *  O/|                                                                        *
 * /| |                                                                        *
 * / \                                           mpiwrap/message_passing.F:843 *
 *******************************************************************************


 *******************************************************************************
 *   ___                                                                       *
 *  /   \                                                                      *
 * [ABORT]                                                                     *
 *  \___/        mp_world_finalize: assert failed:  leaking communicators      *
 *    |                                                                        *
 *  O/|                                                                        *
 * /| |                                                                        *
 * / \                                           mpiwrap/message_passing.F:843 *
 *******************************************************************************


 *******************************************************************************
 *   ___                                                                       *
 *  /   \                                                                      *
 * [ABORT]                                                                     *
 *  \___/        mp_world_finalize: assert failed:  leaking communicators      *
 *    |                                                                        *
 *  O/|                                                                        *
 * /| |                                                                        *
 * / \                                           mpiwrap/message_passing.F:843 *
 *******************************************************************************


 *******************************************************************************
 *   ___                                                                       *
 *  /   \                                                                      *
 * [ABORT]                                                                     *
 *  \___/        mp_world_finalize: assert failed:  leaking communicators      *
 *    |                                                                        *
 *  O/|                                                                        *
 * /| |                                                                        *
 * / \                                           mpiwrap/message_passing.F:843 *
 *******************************************************************************

