 DBCSR| CPU Multiplication driver                                           XSMM
 DBCSR| Multrec recursion limit                                              512
 DBCSR| Multiplication stack size                                           1000
 DBCSR| Maximum elements for images                                    UNLIMITED
 DBCSR| Multiplicative factor virtual images                                   1
 DBCSR| Use multiplication densification                                       T
 DBCSR| Multiplication size stacks                                             3
 DBCSR| Use memory pool for CPU allocation                                     F
 DBCSR| Number of 3D layers                                               SINGLE
 DBCSR| Use MPI memory allocation                                              F
 DBCSR| Use RMA algorithm                                                      F
 DBCSR| Use Communication thread                                               T
 DBCSR| Communication thread load                                             87
 DBCSR| MPI: My node id                                                        0
 DBCSR| MPI: Number of nodes                                                  40
 DBCSR| OMP: Current number of threads                                         1
 DBCSR| OMP: Max number of threads                                             1
 DBCSR| Split modifier for TAS multiplication algorithm                  1.0E+00


  **** **** ******  **  PROGRAM STARTED AT               2023-05-19 17:33:38.567
 ***** ** ***  *** **   PROGRAM STARTED ON                               node164
 **    ****   ******    PROGRAM STARTED BY                                  wyin
 ***** **    ** ** **   PROGRAM PROCESS ID                                  8384
  **** **  *******  **  PROGRAM STARTED IN /home/wyin/bozai/job/1-TiO2/2-slab-11
                                           0/1-pure/3-Marcus/3-Hab/t/4-40-19

 CP2K| version string:                                       CP2K version 2022.1
 CP2K| source code revision number:                                  git:2caeb6f
 CP2K| cp2kflags: omp libint fftw3 libxc elpa parallel mpi3 scalapack xsmm plume
 CP2K|            d2 spglib mkl libvori libbqb
 CP2K| is freely available from                            https://www.cp2k.org/
 CP2K| Program compiled at                          Mon Mar 13 16:18:57 CET 2023
 CP2K| Program compiled on                                               login02
 CP2K| Program compiled for                                                local
 CP2K| Data directory path                   /home/wyin/package/cp2k-2022.1/data
 CP2K| Input file name                                                 input.inp
 
 GLOBAL| Force Environment number                                              1
 GLOBAL| Basis set file name                                           BASIS_SET
 GLOBAL| Potential file name                                           POTENTIAL
 GLOBAL| MM Potential file name                                     MM_POTENTIAL
 GLOBAL| Coordinate file name                                      pure-slab.xyz
 GLOBAL| Force Environment number                                              2
 GLOBAL| Basis set file name            /home/wyin/bozai/Bootstrap/BASIS_SET/BAS
 GLOBAL| Potential file name            /home/wyin/bozai/Bootstrap/BASIS_SET/GTH
 GLOBAL| MM Potential file name                                     MM_POTENTIAL
 GLOBAL| Coordinate file name                                      __STD_INPUT__
 GLOBAL| Force Environment number                                              3
 GLOBAL| Basis set file name            /home/wyin/bozai/Bootstrap/BASIS_SET/BAS
 GLOBAL| Potential file name            /home/wyin/bozai/Bootstrap/BASIS_SET/GTH
 GLOBAL| MM Potential file name                                     MM_POTENTIAL
 GLOBAL| Coordinate file name                                      __STD_INPUT__
 GLOBAL| Method name                                                        CP2K
 GLOBAL| Project name                                                    PROJECT
 GLOBAL| Run type                                                         ENERGY
 GLOBAL| FFT library                                                       FFTW3
 GLOBAL| Diagonalization library                                            ELPA
 GLOBAL| Minimum number of eigenvectors for ELPA usage                        16
 GLOBAL| Orthonormality check for eigenvectors                          DISABLED
 GLOBAL| Matrix multiplication library                                 ScaLAPACK
 GLOBAL| All-to-all communication in single precision                          F
 GLOBAL| FFTs using library dependent lengths                                  F
 GLOBAL| Grid backend                                                       AUTO
 GLOBAL| Global print level                                               MEDIUM
 GLOBAL| MPI I/O enabled                                                       T
 GLOBAL| Total number of message passing processes                            40
 GLOBAL| Number of threads for this process                                    1
 GLOBAL| This output is from process                                           0
 GLOBAL| Stack size for threads created by OpenMP (OMP_STACKSIZE)        default
 GLOBAL| CPU model name                Intel(R) Xeon(R) CPU E5-2640 v4 @ 2.40GHz
 GLOBAL| CPUID                                                              1002
 GLOBAL| Compiled for CPUID                                                 1001

 *** HINT in environment.F:869 :: The compiler target flags (x86_avx) used ***
 *** to build this binary cannot exploit all extensions of this CPU model  ***
 *** (x86_avx2). Consider compiler target flags as part of FCFLAGS and     ***
 *** CFLAGS (ARCH file).                                                   ***


 MEMORY| system memory details [Kb]
 MEMORY|                        rank 0           min           max       average
 MEMORY| MemTotal            197799404     197799404     197799404     197799404
 MEMORY| MemFree             192378860     192378860     192428944     192403902
 MEMORY| Buffers                 14612         14000         14612         14306
 MEMORY| Cached                 314384        263376        314384        288880
 MEMORY| Slab                   125848        124056        125848        124952
 MEMORY| SReclaimable            39524         37660         39524         38592
 MEMORY| MemLikelyFree       192747380     192743980     192747380     192745680


 *** Fundamental physical constants (SI units) ***

 *** Literature: B. J. Mohr and B. N. Taylor,
 ***             CODATA recommended values of the fundamental physical
 ***             constants: 2006, Web Version 5.1
 ***             http://physics.nist.gov/constants

 Speed of light in vacuum [m/s]                             2.99792458000000E+08
 Magnetic constant or permeability of vacuum [N/A**2]       1.25663706143592E-06
 Electric constant or permittivity of vacuum [F/m]          8.85418781762039E-12
 Planck constant (h) [J*s]                                  6.62606896000000E-34
 Planck constant (h-bar) [J*s]                              1.05457162825177E-34
 Elementary charge [C]                                      1.60217648700000E-19
 Electron mass [kg]                                         9.10938215000000E-31
 Electron g factor [ ]                                     -2.00231930436220E+00
 Proton mass [kg]                                           1.67262163700000E-27
 Fine-structure constant                                    7.29735253760000E-03
 Rydberg constant [1/m]                                     1.09737315685270E+07
 Avogadro constant [1/mol]                                  6.02214179000000E+23
 Boltzmann constant [J/K]                                   1.38065040000000E-23
 Atomic mass unit [kg]                                      1.66053878200000E-27
 Bohr radius [m]                                            5.29177208590000E-11

 *** Conversion factors ***

 [u] -> [a.u.]                                              1.82288848426455E+03
 [Angstrom] -> [Bohr] = [a.u.]                              1.88972613288564E+00
 [a.u.] = [Bohr] -> [Angstrom]                              5.29177208590000E-01
 [a.u.] -> [s]                                              2.41888432650478E-17
 [a.u.] -> [fs]                                             2.41888432650478E-02
 [a.u.] -> [J]                                              4.35974393937059E-18
 [a.u.] -> [N]                                              8.23872205491840E-08
 [a.u.] -> [K]                                              3.15774647902944E+05
 [a.u.] -> [kJ/mol]                                         2.62549961709828E+03
 [a.u.] -> [kcal/mol]                                       6.27509468713739E+02
 [a.u.] -> [Pa]                                             2.94210107994716E+13
 [a.u.] -> [bar]                                            2.94210107994716E+08
 [a.u.] -> [atm]                                            2.90362800883016E+08
 [a.u.] -> [eV]                                             2.72113838565563E+01
 [a.u.] -> [Hz]                                             6.57968392072181E+15
 [a.u.] -> [1/cm] (wave numbers)                            2.19474631370540E+05
 [a.u./Bohr**2] -> [1/cm]                                   5.14048714338585E+03
 
 MIXED_ENV| Number of created MPI groups:                                      1
 MIXED_ENV| Task to group correspondence:
  (   0 :    0)  (   1 :    0)  (   2 :    0)  (   3 :    0)
  (   4 :    0)  (   5 :    0)  (   6 :    0)  (   7 :    0)
  (   8 :    0)  (   9 :    0)  (  10 :    0)  (  11 :    0)
  (  12 :    0)  (  13 :    0)  (  14 :    0)  (  15 :    0)
  (  16 :    0)  (  17 :    0)  (  18 :    0)  (  19 :    0)
  (  20 :    0)  (  21 :    0)  (  22 :    0)  (  23 :    0)
  (  24 :    0)  (  25 :    0)  (  26 :    0)  (  27 :    0)
  (  28 :    0)  (  29 :    0)  (  30 :    0)  (  31 :    0)
  (  32 :    0)  (  33 :    0)  (  34 :    0)  (  35 :    0)
  (  36 :    0)  (  37 :    0)  (  38 :    0)  (  39 :    0)

 CELL_TOP| Volume [angstrom^3]:                                      3844.865420
 CELL_TOP| Vector a [angstrom    12.994     0.000     0.000   |a| =    12.993800
 CELL_TOP| Vector b [angstrom     0.000    11.836     0.000   |b| =    11.836000
 CELL_TOP| Vector c [angstrom     0.000     0.000    25.000   |c| =    25.000000
 CELL_TOP| Angle (b,c), alpha [degree]:                                90.000000
 CELL_TOP| Angle (a,c), beta  [degree]:                                90.000000
 CELL_TOP| Angle (a,b), gamma [degree]:                                90.000000
 CELL_TOP| Numerically orthorhombic:                                         YES
 
 GENERATE|  Preliminary Number of Bonds generated:                             0
 GENERATE|  Achieved consistency in connectivity generation.

 CELL| Volume [angstrom^3]:                                          3844.865420
 CELL| Vector a [angstrom]:      12.994     0.000     0.000   |a| =    12.993800
 CELL| Vector b [angstrom]:       0.000    11.836     0.000   |b| =    11.836000
 CELL| Vector c [angstrom]:       0.000     0.000    25.000   |c| =    25.000000
 CELL| Angle (b,c), alpha [degree]:                                    90.000000
 CELL| Angle (a,c), beta  [degree]:                                    90.000000
 CELL| Angle (a,b), gamma [degree]:                                    90.000000
 CELL| Numerically orthorhombic:                                             YES

 CELL_REF| Volume [angstrom^3]:                                      3844.865420
 CELL_REF| Vector a [angstrom    12.994     0.000     0.000   |a| =    12.993800
 CELL_REF| Vector b [angstrom     0.000    11.836     0.000   |b| =    11.836000
 CELL_REF| Vector c [angstrom     0.000     0.000    25.000   |c| =    25.000000
 CELL_REF| Angle (b,c), alpha [degree]:                                90.000000
 CELL_REF| Angle (a,c), beta  [degree]:                                90.000000
 CELL_REF| Angle (a,b), gamma [degree]:                                90.000000
 CELL_REF| Numerically orthorhombic:                                         YES


 MOLECULE KIND INFORMATION


 All atoms are their own molecule, skipping detailed information
 
 MIXED_CDFT| Activating mixed CDFT calculation
 MIXED_CDFT| Number of CDFT states:                                            2
 MIXED_CDFT| CDFT states calculation mode: serial
 MIXED_CDFT| The constraints are separately built for all CDFT states
 MIXED_CDFT| Calculating electronic coupling between states:                   T
 MIXED_CDFT| Calculating electronic coupling reliability metric:               F
 MIXED_CDFT| Configuration interaction (CDFT-CI) was requested:                F
 MIXED_CDFT| Block diagonalizing the mixed CDFT Hamiltonian:                   F
 MIXED_CDFT| Matrix inversions calculated with LU decomposition.

  ------------------------- CDFT coupling information --------------------------
  Information at step (fs):                                                 0.00

  ############################################
  ###### CDFT states I =  1 and J =   2 ######
  ############################################
  Atomic group:                                                                1
  Strength of constraint I:                                      -0.049446697694
  Strength of constraint J:                                      -0.046408903499
  Final value of constraint I:                                    0.999482823041
  Final value of constraint J:                                    1.000949169760

  Overlap between states I and J:                                 0.027469011462
  Charge transfer energy (J-I) (Hartree):                         0.002227564278
 
  Diabatic electronic coupling (Lowdin, mHartree):                0.772538130349
  ------------------------------------------------------------------------------
 NO FORCE_EVAL section calculated the dipole

 ENERGY| Total FORCE_EVAL ( MIXED ) energy [a.u.]:         -5775.837125171767184

 -------------------------------------------------------------------------------
 -                                                                             -
 -                                DBCSR STATISTICS                             -
 -                                                                             -
 -------------------------------------------------------------------------------
 COUNTER                                    TOTAL       BLAS       SMM       ACC
 flops   832 x    65 x   192            996802560       0.0%    100.0%      0.0%
 flops   193 x    65 x    33           3278761200       0.0%    100.0%      0.0%
 flops   832 x    65 x   160           3322675200       0.0%    100.0%      0.0%
 flops    13 x     1 x    13           9279284352       0.0%    100.0%      0.0%
 flops   192 x    65 x    33           9785318400       0.0%    100.0%      0.0%
 flops    26 x     1 x    13          10685872704       0.0%    100.0%      0.0%
 flops    13 x     1 x    26          10685872704       0.0%    100.0%      0.0%
 flops    26 x     1 x    26          10748854272       0.0%    100.0%      0.0%
 flops   832 x    64 x   192          10796138496       0.0%    100.0%      0.0%
 flops   832 x    96 x   192          11777605632       0.0%    100.0%      0.0%
 flops   193 x    64 x    33          16141593600       0.0%    100.0%      0.0%
 flops   193 x    96 x    33          19369912320       0.0%    100.0%      0.0%
 flops   193 x    65 x    64          25435238400       0.0%    100.0%      0.0%
 flops   832 x    65 x    33          31481049600       0.0%    100.0%      0.0%
 flops   193 x    65 x   182          33827743040       0.0%    100.0%      0.0%
 flops   832 x    64 x   160          35987128320       0.0%    100.0%      0.0%
 flops   832 x    96 x   160          39258685440       0.0%    100.0%      0.0%
 flops   193 x    65 x    32          47691072000       0.0%    100.0%      0.0%
 flops   192 x    64 x    33          48173875200       0.0%    100.0%      0.0%
 flops   192 x    96 x    33          57808650240       0.0%    100.0%      0.0%
 flops   193 x    65 x   156          57990416640       0.0%    100.0%      0.0%
 flops   193 x    65 x   169          62822951360       0.0%    100.0%      0.0%
 flops   192 x    65 x    64          75910348800       0.0%    100.0%      0.0%
 flops    13 x    13 x    33          94797578304       0.0%    100.0%      0.0%
 flops   192 x    65 x   182         100957409280       0.0%    100.0%      0.0%
 flops    26 x    13 x    33         108188267616       0.0%    100.0%      0.0%
 flops    13 x    26 x    33         108188267616       0.0%    100.0%      0.0%
 flops    26 x    26 x    33         110526324480       0.0%    100.0%      0.0%
 flops   193 x    64 x    64         125219635200       0.0%    100.0%      0.0%
 flops   192 x    65 x    32         142331904000       0.0%    100.0%      0.0%
 flops   193 x    96 x    64         150263562240       0.0%    100.0%      0.0%
 flops   832 x    64 x    33         154983628800       0.0%    100.0%      0.0%
 flops   193 x    64 x   182         166536581120       0.0%    100.0%      0.0%
 flops   192 x    65 x   156         173069844480       0.0%    100.0%      0.0%
 flops   832 x    96 x    33         185980354560       0.0%    100.0%      0.0%
 flops   192 x    65 x   169         187492331520       0.0%    100.0%      0.0%
 flops   193 x    96 x   182         199843897344       0.0%    100.0%      0.0%
 flops   193 x    64 x    32         234786816000       0.0%    100.0%      0.0%
 flops   832 x    65 x    64         244216627200       0.0%    100.0%      0.0%
 flops   193 x    96 x    32         281744179200       0.0%    100.0%      0.0%
 flops   193 x    64 x   156         285491281920       0.0%    100.0%      0.0%
 flops   193 x    64 x   169         309282222080       0.0%    100.0%      0.0%
 flops   193 x    96 x   156         342589538304       0.0%    100.0%      0.0%
 flops   193 x    96 x   169         371138666496       0.0%    100.0%      0.0%
 flops   832 x    65 x   182         381103923200       0.0%    100.0%      0.0%
 flops   832 x    65 x    32         457906176000       0.0%    100.0%      0.0%
 flops   832 x    65 x   156         653321011200       0.0%    100.0%      0.0%
 flops   832 x    65 x   169         707764428800       0.0%    100.0%      0.0%
 flops   192 x    64 x    64         948399243264       0.0%    100.0%      0.0%
 flops   192 x    96 x    64        1023141740544       0.0%    100.0%      0.0%
 flops   192 x    64 x   182        1292254838784       0.0%    100.0%      0.0%
 flops   192 x    96 x   182        1391659057152       0.0%    100.0%      0.0%
 flops    13 x    13 x    64        1470798790656       0.0%    100.0%      0.0%
 flops    26 x    13 x    64        1678557364224       0.0%    100.0%      0.0%
 flops    13 x    26 x    64        1678557364224       0.0%    100.0%      0.0%
 flops    26 x    26 x    64        1714832670720       0.0%    100.0%      0.0%
 flops   192 x    64 x    32        1850084425728       0.0%    100.0%      0.0%
 flops   192 x    96 x    32        1990226608128       0.0%    100.0%      0.0%
 flops   192 x    64 x   156        2215294009344       0.0%    100.0%      0.0%
 flops    13 x    13 x   192        2241393623040       0.0%    100.0%      0.0%
 flops   192 x    96 x   156        2385701240832       0.0%    100.0%      0.0%
 flops   192 x    64 x   169        2399901843456       0.0%    100.0%      0.0%
 flops    26 x    13 x   192        2558003036160       0.0%    100.0%      0.0%
 flops    13 x    26 x   192        2558003036160       0.0%    100.0%      0.0%
 flops   192 x    96 x   169        2584509677568       0.0%    100.0%      0.0%
 flops    26 x    26 x   192        2613284044800       0.0%    100.0%      0.0%
 flops   832 x    64 x    64        2677115191296       0.0%    100.0%      0.0%
 flops    13 x    13 x    32        2849672656896       0.0%    100.0%      0.0%
 flops   832 x    96 x    64        2917574639616       0.0%    100.0%      0.0%
 flops    26 x    13 x    32        3252204893184       0.0%    100.0%      0.0%
 flops    13 x    26 x    32        3252204893184       0.0%    100.0%      0.0%
 flops    26 x    26 x    32        3322488299520       0.0%    100.0%      0.0%
 flops   832 x    64 x   182        4127648645120       0.0%    100.0%      0.0%
 flops   832 x    96 x   182        4502889431040       0.0%    100.0%      0.0%
 flops   832 x    64 x    32        5203943227392       0.0%    100.0%      0.0%
 flops   832 x    96 x    32        5654804692992       0.0%    100.0%      0.0%
 flops   832 x    64 x   156        7075969105920       0.0%    100.0%      0.0%
 flops    13 x    13 x   160        7471312076800       0.0%    100.0%      0.0%
 flops   832 x    64 x   169        7665633198080       0.0%    100.0%      0.0%
 flops   832 x    96 x   156        7719239024640       0.0%    100.0%      0.0%
 flops   832 x    96 x   169        8362508943360       0.0%    100.0%      0.0%
 flops    26 x    13 x   160        8526676787200       0.0%    100.0%      0.0%
 flops    13 x    26 x   160        8526676787200       0.0%    100.0%      0.0%
 flops    26 x    26 x   160        8710946816000       0.0%    100.0%      0.0%
 flops    13 x    32 x    13       52268704530432       0.0%    100.0%      0.0%
 flops    26 x    32 x    13       59991161012224       0.0%    100.0%      0.0%
 flops    13 x    32 x    26       59991161012224       0.0%    100.0%      0.0%
 flops    26 x    32 x    26       60693181366272       0.0%    100.0%      0.0%
 flops inhomo. stacks                           0       0.0%      0.0%      0.0%
 flops total                       376.269300E+12       0.0%    100.0%      0.0%
 flops max/rank                     10.694385E+12       0.0%    100.0%      0.0%
 matmuls inhomo. stacks                         0       0.0%      0.0%      0.0%
 matmuls total                        13110757312       0.0%    100.0%      0.0%
 number of processed stacks              52421124       0.0%    100.0%      0.0%
 average stack size                                     0.0     250.1       0.0
 marketing flops                   540.880197E+12
 -------------------------------------------------------------------------------
 # multiplications                          29419
 max memory usage/rank             946.888704E+06
 # max total images/rank                        5
 # max 3D layers                                1
 # MPI messages exchanged                38833080
 MPI messages size (bytes):
  total size                        12.196545E+12
  min size                           0.000000E+00
  max size                           1.277952E+06
  average size                     314.076188E+03
 MPI breakdown and total messages size (bytes):
             size <=      128              522720                        0
       128 < size <=     8192              130680                647824320
      8192 < size <=    32768             6892020             146983243320
     32768 < size <=   131072            12923388            1006536649152
    131072 < size <=  4194304            18364272           11040844314624
   4194304 < size <= 16777216                   0                        0
  16777216 < size                               0                        0
 -------------------------------------------------------------------------------

 *** WARNING in dbcsr_mm.F:290 :: Using a non-square number of MPI ranks ***
 *** might lead to poor performance. Used ranks: 40 Suggested: 36 81     ***

 -------------------------------------------------------------------------------
 -                                                                             -
 -                      DBCSR MESSAGE PASSING PERFORMANCE                      -
 -                                                                             -
 -------------------------------------------------------------------------------
 ROUTINE             CALLS      AVE VOLUME [Bytes]
 MP_Bcast               89                     12.
 MP_Allreduce       150272                    178.
 MP_Alltoall        189404                 547885.
 MP_ISend          2199136                 149995.
 MP_IRecv          2189544                 148721.
 -------------------------------------------------------------------------------

 -------------------------------------------------------------------------------
 -                                                                             -
 -                                DBM STATISTICS                               -
 -                                                                             -
 -------------------------------------------------------------------------------
    M  x    N  x    K                                          COUNT     PERCENT
 -------------------------------------------------------------------------------

 -------------------------------------------------------------------------------
 -                                                                             -
 -                                GRID STATISTICS                              -
 -                                                                             -
 -------------------------------------------------------------------------------
 LP    KERNEL             BACKEND                              COUNT     PERCENT
 5     collocate ortho    REF                              298759968      33.89%
 5     integrate ortho    REF                              152013888      17.24%
 6     collocate ortho    REF                              143224896      16.25%
 4     collocate ortho    REF                              142157760      16.13%
 6     integrate ortho    REF                               72875136       8.27%
 4     integrate ortho    REF                               72332160       8.21%
 0     collocate general  REF                                 154880       0.02%
 0     integrate general  REF                                  30720       0.00%
 -------------------------------------------------------------------------------

 MEMORY| Estimated peak process memory [MiB]                                 904

 -------------------------------------------------------------------------------
 -                                                                             -
 -                         MESSAGE PASSING PERFORMANCE                         -
 -                                                                             -
 -------------------------------------------------------------------------------

 ROUTINE             CALLS      AVE VOLUME [Bytes]
 MP_Group               10
 MP_Bcast             4756                 129382.
 MP_Allreduce        16514                    191.
 MP_Sync               303
 MP_Alltoall         24585                7963871.
 MP_SendRecv         28704                 589824.
 MP_ISendRecv       420498                  28416.
 MP_Wait            780591
 MP_comm_split         117
 MP_ISend           331313                 227624.
 MP_IRecv           331313                 227952.
 MP_Recv              3431                 851968.
 MP_Write_All            4                 215808.
 -------------------------------------------------------------------------------


 -------------------------------------------------------------------------------
 -                                                                             -
 -                           R E F E R E N C E S                               -
 -                                                                             -
 -------------------------------------------------------------------------------
 
 CP2K version 2022.1, the CP2K developers group (2022).
 CP2K is freely available from https://www.cp2k.org/ .

 Kuehne,Thomas D.; Iannuzzi,Marcella; Del Ben,Mauro;
 Rybkin,Vladimir V.; Seewald,Patrick; Stein,Frederick; Laino,Teodoro;
 Khaliullin,Rustam Z.; Schuett,Ole; Schiffmann,Florian; Golze,Dorothea;
 Wilhelm,Jan; Chulkov,Sergey; Bani-Hashemian,Mohammad Hossein;
 Weber,Valery; Borstnik,Urban; Taillefumier,Mathieu;
 Jakobovits,Alice Shoshana; Lazzaro,Alfio; Pabst,Hans; Mueller,Tiziano;
 Schade,Robert; Guidon,Manuel; Andermatt,Samuel; Holmberg,Nico;
 Schenter,Gregory K.; Hehn,Anna; Bussy,Augustin; Belleflamme,Fabian;
 Tabacchi,Gloria; Gloess,Andreas; Lass,Michael; Bethune,Iain;
 Mundy,Christopher J.; Plessl,Christian; Watkins,Matt;
 VandeVondele,Joost; Krack,Matthias; Hutter,Juerg. 
 The Journal of Chemical Physics, 152 (19), (2020). 
 CP2K: An electronic structure and molecular dynamics software package -
 Quickstep: Efficient and accurate electronic structure calculations.
 https://doi.org/10.1063/5.0007045

 Holmberg, Nico; Laasonen, Kari. 
 The Journal of Chemical Physics, 149 (10), 104702 (2018). 
 Diabatic model for electrochemical hydrogen evolution based on
 constrained DFT
 configuration interaction.
 https://doi.org/10.1063/1.5038959

 Holmberg, N; Laasonen, K. 
 Journal of Chemical Theory and Computation, 13 (2), (2017). 
 Efficient Constrained Density Functional Theory Implementation for
 Simulation of Condensed Phase Electron Transfer Reactions.
 https://doi.org/10.1021/acs.jctc.6b01085

 Goerigk, Lars; Hansen, Andreas; Bauer, Christoph; Ehrlich, Stephan;
 Najibi, Asim; Grimme, Stefan. , 19 (48), (2017). 
 A look at the density functional theory zoo with the advanced GMTKN55 database
 for general main group thermochemistry, kinetics and noncovalent interactions.
 https://doi.org/10.1039/C7CP04913G

 Schuett, Ole; Messmer, Peter; Hutter, Juerg; VandeVondele, Joost. 
 Electronic Structure Calculations on Graphics Processing Units, John
 Wiley & Sons, Ltd, 173-190 (2016). 
 GPU-Accelerated Sparse Matrix-Matrix Multiplication for
 Linear Scaling Density Functional Theory.
 https://doi.org/10.1002/9781118670712.ch8

 Heinecke, A; Henry, G; Hutchinson, M; Pabst, H. 
 Proceedings of Intl. Supercomputing Conference, 981-991 (2016). 
 LIBXSMM: Accelerating Small Matrix Multiplications
 by Runtime Code Generation.
 https://doi.org/10.1109/SC.2016.83

 Borstnik, U; VandeVondele, J; Weber, V; Hutter, J. 
 PARALLEL COMPUTING, 40 (5-6), 47-58 (2014). 
 Sparse matrix multiplication: The distributed block-compressed sparse
 row library.
 https://doi.org/10.1016/j.parco.2014.03.012

 Hutter, J; Iannuzzi, M; Schiffmann, F; VandeVondele, J. 
 WIREs Comput Mol Sci., 4 (1), 15-25 (2014). 
 CP2K: atomistic simulations of condensed matter systems.
 https://doi.org/10.1002/wcms.1159

 Marek, A; Blum, V; Johanni, R; Havu, V; Lang, B; Auckenthaler, T;
 Heinecke, A; Bungartz, H; Lederer, H. 
 Journal of Physics: Condensed Matter, 26 (21), (2014). 
 The ELPA library: scalable parallel eigenvalue solutions for
 electronic structure
 theory and computational science.
 https://doi.org/10.1088/0953-8984/26/21/213201

 Grimme, S; Ehrlich, S; Goerigk, L. 
 JOURNAL OF COMPUTATIONAL CHEMISTRY, 32, 1456 (2011). 
 Effect of the damping function in dispersion corrected density functional theory.
 https://doi.org/10.1002/jcc.21759

 Grimme, S; Antony, J; Ehrlich, S; Krieg, H. 
 JOURNAL OF CHEMICAL PHYSICS, 132 (15), 154104 (2010). 
 A consistent and accurate ab initio parametrization of density
 functional dispersion correction (DFT-D) for the 94 elements H-Pu.
 https://doi.org/10.1063/1.3382344

 Weber, V; VandeVondele, J; Hutter, J; Niklasson, AMN. 
 JOURNAL OF CHEMICAL PHYSICS, 128 (8), 084113 (2008). 
 Direct energy functional minimization under orthogonality constraints.
 https://doi.org/10.1063/1.2841077

 VandeVondele, J; Hutter, J. 
 JOURNAL OF CHEMICAL PHYSICS, 127 (11), 114105 (2007). 
 Gaussian basis sets for accurate calculations on molecular systems in
 gas and condensed phases.
 https://doi.org/10.1063/1.2770708

 Krack, M. 
 THEORETICAL CHEMISTRY ACCOUNTS, 114 (1-3), 145-152 (2005). 
 Pseudopotentials for H to Kr optimized for gradient-corrected
 exchange-correlation functionals.
 https://doi.org/10.1007/s00214-005-0655-y

 VandeVondele, J; Krack, M; Mohamed, F; Parrinello, M; Chassaing, T;
 Hutter, J. COMPUTER PHYSICS COMMUNICATIONS, 167 (2), 103-128 (2005). 
 QUICKSTEP: Fast and accurate density functional calculations using a
 mixed Gaussian and plane waves approach.
 https://doi.org/10.1016/j.cpc.2004.12.014

 Frigo, M; Johnson, SG. 
 PROCEEDINGS OF THE IEEE, 93 (2), 216-231 (2005). 
 The design and implementation of FFTW3.
 https://doi.org/10.1109/JPROC.2004.840301

 VandeVondele, J; Hutter, J. 
 JOURNAL OF CHEMICAL PHYSICS, 118 (10), 4365-4369 (2003). 
 An efficient orbital transformation method for electronic structure
 calculations.
 https://doi.org/10.1063/1.1543154

 Hartwigsen, C; Goedecker, S; Hutter, J. 
 PHYSICAL REVIEW B, 58 (7), 3641-3662 (1998). 
 Relativistic separable dual-space Gaussian pseudopotentials from H to Rn.
 https://doi.org/10.1103/PhysRevB.58.3641

 Dudarev, SL; Botton, GA; Savrasov, SY; Humphreys, CJ; Sutton, AP. 
 PHYSICAL REVIEW B, 57 (3), 1505-1509 (1998). 
 Electron-energy-loss spectra and the structural stability of
 nickel oxide: An LSDA+U study.
 https://doi.org/10.1103/PhysRevB.57.1505

 Lippert, G; Hutter, J; Parrinello, M. 
 MOLECULAR PHYSICS, 92 (3), 477-487 (1997). 
 A hybrid Gaussian and plane wave density functional scheme.
 https://doi.org/10.1080/002689797170220

 Dudarev, SL; Manh, DN; Sutton, AP. 
 PHILOSOPHICAL MAGAZINE B, 75 (5), 613-628 (1997). 
 Effect of Mott-Hubbard correlations on the electronic
 structure and structural stability of uranium dioxide.
 https://doi.org/10.1080/13642819708202343

 Perdew, JP; Burke, K; Ernzerhof, M. 
 PHYSICAL REVIEW LETTERS, 77 (18), 3865-3868 (1996). 
 Generalized gradient approximation made simple.
 https://doi.org/10.1103/PhysRevLett.77.3865

 Goedecker, S; Teter, M; Hutter, J. 
 PHYSICAL REVIEW B, 54 (3), 1703-1710 (1996). 
 Separable dual-space Gaussian pseudopotentials.
 https://doi.org/10.1103/PhysRevB.54.1703


 -------------------------------------------------------------------------------
 -                                                                             -
 -                                T I M I N G                                  -
 -                                                                             -
 -------------------------------------------------------------------------------
 SUBROUTINE                       CALLS  ASD         SELF TIME        TOTAL TIME
                                MAXIMUM       AVERAGE  MAXIMUM  AVERAGE  MAXIMUM
 CP2K                                 1  1.0    0.078    0.083 6745.178 6745.219
 qs_energies                          2  2.0    0.004    0.005 6743.325 6743.367
 cdft_scf_loop                        2  3.0    0.001    0.002 6728.492 6728.532
 scf_env_do_scf                      21  4.0    0.005    0.012 6726.186 6726.229
 scf_env_do_scf_inner_loop         1189  5.0    0.029    0.067 6478.069 6488.654
 qs_ks_update_qs_env               1218  6.0    0.012    0.015 3144.269 3147.162
 rebuild_ks_matrix                 1189  7.0    0.007    0.008 3140.981 3143.895
 qs_ks_build_kohn_sham_matrix      1189  8.0    0.209    0.256 3140.974 3143.889
 qs_rho_update_rho_low             1191  6.0    0.010    0.011 2901.899 2903.172
 calculate_rho_elec                2382  7.0    4.098    4.609 2901.890 2903.161
 grid_collocate_task_list          2382  8.0 2276.743 2383.268 2276.743 2383.268
 sum_up_and_integrate               605  9.0   14.752   16.499 1408.079 1408.436
 integrate_v_rspace                1212 10.0    0.052    0.071 1395.619 1399.383
 dbcsr_multiply_generic           29419 11.1    1.992    2.241 1103.719 1136.504
 grid_integrate_task_list          1212 11.0 1068.056 1132.538 1068.056 1132.538
 plus_u                            1189  9.0    0.048    0.079 1115.653 1115.992
 lowdin                            1189 10.0    0.306    0.490 1115.605 1115.939
 multiply_cannon                  29419 12.1    3.421    4.447  846.220  906.924
 multiply_cannon_loop             29419 13.1    6.474    6.915  783.303  841.301
 density_rs2pw                     2382  8.0    0.182    0.213  577.180  666.530
 multiply_cannon_multrec         588380 14.1  554.136  629.020  554.495  629.316
 qs_scf_new_mos                    1189  6.0    0.008    0.012  554.685  557.468
 qs_scf_loop_do_ot                 1189  7.0    0.020    0.032  554.677  557.459
 cp_dbcsr_sm_fm_multiply           3716 10.9    0.141    0.157  531.421  534.734
 rs_pw_transfer                   17984 10.0    0.189    0.229  397.212  482.801
 ot_scf_mini                       1189  8.0    0.072    0.120  477.661  479.737
 pw_transfer                      23337  9.9    1.696    2.021  456.098  463.462
 fft_wrap_pw1pw2                  20959 10.9    0.185    0.223  441.864  448.366
 qs_vxc_create                     1189  9.0    0.029    0.044  430.420  430.689
 fft_wrap_pw1pw2_250               6583 11.5   48.792   52.309  411.488  419.982
 cp_gemm                           2680 10.8    0.010    0.013  401.011  402.846
 cp_gemm_fm_gemm                   2680 11.8    0.012    0.018  401.001  402.833
 cp_fm_gemm                        2680 12.8  400.989  402.818  400.989  402.818
 cp_dbcsr_sm_fm_multiply_core      3716 11.9    0.054    0.090  361.133  379.345
 fft3d_ps                         20959 12.9  195.915  204.953  316.399  327.252
 pw_nn_compose_r                  14352 12.9  201.513  212.760  252.512  305.889
 xc_vxc_pw_create                   605 10.0   34.602   43.462  296.987  297.128
 mp_waitall_1                   2567495 14.7  210.735  296.636  210.735  296.636
 xc_rho_set_and_dset_create        1189 11.0   26.326   31.563  274.053  284.766
 qs_ot_get_orbitals_ref            2378  9.0    0.038    0.053  278.195  279.413
 rs_pw_transfer_RS2PW_250          2392 10.0   51.369   69.513  175.086  260.152
 mp_waitany                      331264 12.0  170.542  255.077  170.542  255.077
 potential_pw2rs                   1212 11.0    0.196    0.209  247.794  252.109
 init_scf_loop                       29  5.0    0.005    0.007  240.206  240.434
 xc_pw_derive                     10764 12.0    0.053    0.077  184.181  235.001
 multiply_cannon_metrocomm3      588380 14.1    1.600    1.730  144.340  231.989
 mp_alltoall_d11v                 64152 13.6  157.697  202.967  157.697  202.967
 ot_mini                           1189  9.0    0.009    0.012  198.453  201.662
 cp_dbcsr_plus_fm_fm_t_native      1214 11.0    0.052    0.070  168.326  172.835
 make_m2s                         58838 12.1    1.951    2.162  168.167  171.729
 dbcsr_complete_redistribute      14818 12.6   56.976   66.771  149.211  157.846
 ot_new_cg_direction                605 10.0    0.014    0.017  155.261  155.277
 apply_preconditioner_dbcsr        1210 11.0    0.007    0.012  150.178  153.042
 apply_all                         1210 12.0    0.173    0.206  150.171  153.036
 make_images                      58838 13.1    4.483    4.677  148.253  151.558
 copy_dbcsr_to_fm                  5365 11.5    0.183    0.218  127.865  141.027
 -------------------------------------------------------------------------------

 The number of warnings for this run is : 177
 
 -------------------------------------------------------------------------------
  **** **** ******  **  PROGRAM ENDED AT                 2023-05-19 19:26:04.725
 ***** ** ***  *** **   PROGRAM RAN ON                                   node164
 **    ****   ******    PROGRAM RAN BY                                      wyin
 ***** **    ** ** **   PROGRAM PROCESS ID                                  8384
  **** **  *******  **  PROGRAM STOPPED IN /home/wyin/bozai/job/1-TiO2/2-slab-11
                                           0/1-pure/3-Marcus/3-Hab/t/4-40-19
