 DBCSR| CPU Multiplication driver                                           XSMM (U)
 DBCSR| Multrec recursion limit                                              512 (U)
 DBCSR| Multiplication stack size                                           1000 (D)
 DBCSR| Maximum elements for images                                    UNLIMITED (U)
 DBCSR| Multiplicative factor virtual images                                   1 (U)
 DBCSR| Use multiplication densification                                       T (D)
 DBCSR| Multiplication size stacks                                             3 (U)
 DBCSR| Use memory pool for CPU allocation                                     F (U)
 DBCSR| Number of 3D layers                                               SINGLE (U)
 DBCSR| Use MPI memory allocation                                              F (U)
 DBCSR| Use RMA algorithm                                                      F (U)
 DBCSR| Use Communication thread                                               T (U)
 DBCSR| Communication thread load                                             87 (D)
 DBCSR| MPI: My process id                                                     0
 DBCSR| MPI: Number of processes                                              32
 DBCSR| OMP: Current number of threads                                         1
 DBCSR| OMP: Max number of threads                                             1
 DBCSR| Split modifier for TAS multiplication algorithm                  1.0E+00 (U)


  **** **** ******  **  PROGRAM STARTED AT               2023-07-16 05:26:47.859
 ***** ** ***  *** **   PROGRAM STARTED ON                                node09
 **    ****   ******    PROGRAM STARTED BY                                   ywj
 ***** **    ** ** **   PROGRAM PROCESS ID                                 46134
  **** **  *******  **  PROGRAM STARTED IN /home/ywj/bozai/work/1-TiO2/1-Bulk/ba
                                           rrier-delocalization-localization/2-c
                                           ube/k-1.0

 CP2K| version string:                                       CP2K version 2023.1
 CP2K| source code revision number:                                  git:b888bd8
 CP2K| cp2kflags: omp libint fftw3 libxc pexsi elpa parallel scalapack cosma xsm
 CP2K|            m max_contr=4 plumed2 spglib mkl sirius libvori libbqb libvdwx
 CP2K|            xc
 CP2K| is freely available from                            https://www.cp2k.org/
 CP2K| Program compiled at                           Fri Apr 7 12:39:25 CST 2023
 CP2K| Program compiled on                                                node01
 CP2K| Program compiled for                                   Linux-intel-x86_64
 CP2K| Data directory path                        /opt/software/cp2k-2023.1/data
 CP2K| Input file name                                            input-slab.inp
 
 GLOBAL| Force Environment number                                              1
 GLOBAL| Basis set file name            /home/ywj/bozai/Bootstrap/BASIS_SET-file
 GLOBAL| Potential file name            /home/ywj/bozai/Bootstrap/BASIS_SET-file
 GLOBAL| MM Potential file name                                     MM_POTENTIAL
 GLOBAL| Coordinate file name                                          k-1.0.xyz
 GLOBAL| Method name                                                        CP2K
 GLOBAL| Project name                                                    PROJECT
 GLOBAL| Run type                                                         ENERGY
 GLOBAL| FFT library                                                       FFTW3
 GLOBAL| Diagonalization library                                            ELPA
 GLOBAL| DGEMM library                                                      BLAS
 GLOBAL| Minimum number of eigenvectors for ELPA usage                        16
 GLOBAL| Orthonormality check for eigenvectors                          DISABLED
 GLOBAL| Matrix multiplication library                                     COSMA
 GLOBAL| All-to-all communication in single precision                          F
 GLOBAL| FFTs using library dependent lengths                                  F
 GLOBAL| Grid backend                                                       AUTO
 GLOBAL| Global print level                                               MEDIUM
 GLOBAL| MPI I/O enabled                                                       T
 GLOBAL| Total number of message passing processes                            32
 GLOBAL| Number of threads for this process                                    1
 GLOBAL| This output is from process                                           0
 GLOBAL| Stack size for threads created by OpenMP (OMP_STACKSIZE)        default
 GLOBAL| CPU model name            Intel(R) Xeon(R) Platinum 8350C CPU @ 2.60GHz
 GLOBAL| CPUID                                                              1003

 MEMORY| system memory details [Kb]
 MEMORY|                        rank 0           min           max       average
 MEMORY| MemTotal            263613576     263613576     263613576     263613576
 MEMORY| MemFree             203219356     203219356     203221216     203220537
 MEMORY| Buffers                234572        234572        234572        234572
 MEMORY| Cached               35606812      35606812      35606812      35606812
 MEMORY| Slab                   536160        536160        536160        536160
 MEMORY| SReclaimable           327692        327692        327692        327692
 MEMORY| MemLikelyFree       239388432     239388432     239390292     239389613


 *** Fundamental physical constants (SI units) ***

 *** Literature: B. J. Mohr and B. N. Taylor,
 ***             CODATA recommended values of the fundamental physical
 ***             constants: 2006, Web Version 5.1
 ***             http://physics.nist.gov/constants

 Speed of light in vacuum [m/s]                             2.99792458000000E+08
 Magnetic constant or permeability of vacuum [N/A**2]       1.25663706143592E-06
 Electric constant or permittivity of vacuum [F/m]          8.85418781762039E-12
 Planck constant (h) [J*s]                                  6.62606896000000E-34
 Planck constant (h-bar) [J*s]                              1.05457162825177E-34
 Elementary charge [C]                                      1.60217648700000E-19
 Electron mass [kg]                                         9.10938215000000E-31
 Electron g factor [ ]                                     -2.00231930436220E+00
 Proton mass [kg]                                           1.67262163700000E-27
 Fine-structure constant                                    7.29735253760000E-03
 Rydberg constant [1/m]                                     1.09737315685270E+07
 Avogadro constant [1/mol]                                  6.02214179000000E+23
 Boltzmann constant [J/K]                                   1.38065040000000E-23
 Atomic mass unit [kg]                                      1.66053878200000E-27
 Bohr radius [m]                                            5.29177208590000E-11

 *** Conversion factors ***

 [u] -> [a.u.]                                              1.82288848426455E+03
 [Angstrom] -> [Bohr] = [a.u.]                              1.88972613288564E+00
 [a.u.] = [Bohr] -> [Angstrom]                              5.29177208590000E-01
 [a.u.] -> [s]                                              2.41888432650478E-17
 [a.u.] -> [fs]                                             2.41888432650478E-02
 [a.u.] -> [J]                                              4.35974393937059E-18
 [a.u.] -> [N]                                              8.23872205491840E-08
 [a.u.] -> [K]                                              3.15774647902944E+05
 [a.u.] -> [kJ/mol]                                         2.62549961709828E+03
 [a.u.] -> [kcal/mol]                                       6.27509468713739E+02
 [a.u.] -> [Pa]                                             2.94210107994716E+13
 [a.u.] -> [bar]                                            2.94210107994716E+08
 [a.u.] -> [atm]                                            2.90362800883016E+08
 [a.u.] -> [eV]                                             2.72113838565563E+01
 [a.u.] -> [Hz]                                             6.57968392072181E+15
 [a.u.] -> [1/cm] (wave numbers)                            2.19474631370540E+05
 [a.u./Bohr**2] -> [1/cm]                                   5.14048714338585E+03
 

 CELL_TOP| Volume [angstrom^3]:                                      2911.992402
 CELL_TOP| Vector a [angstrom    13.911     0.000     0.000   |a| =    13.910500
 CELL_TOP| Vector b [angstrom     0.000    13.911     0.000   |b| =    13.910500
 CELL_TOP| Vector c [angstrom     0.000     0.000    15.049   |c| =    15.048900
 CELL_TOP| Angle (b,c), alpha [degree]:                                90.000000
 CELL_TOP| Angle (a,c), beta  [degree]:                                90.000000
 CELL_TOP| Angle (a,b), gamma [degree]:                                90.000000
 CELL_TOP| Numerically orthorhombic:                                         YES
 CELL_TOP| Periodicity                                                       XYZ
 
 GENERATE|  Preliminary Number of Bonds generated:                             0
 GENERATE|  Achieved consistency in connectivity generation.

 CELL| Volume [angstrom^3]:                                          2911.992402
 CELL| Vector a [angstrom]:      13.911     0.000     0.000   |a| =    13.910500
 CELL| Vector b [angstrom]:       0.000    13.911     0.000   |b| =    13.910500
 CELL| Vector c [angstrom]:       0.000     0.000    15.049   |c| =    15.048900
 CELL| Angle (b,c), alpha [degree]:                                    90.000000
 CELL| Angle (a,c), beta  [degree]:                                    90.000000
 CELL| Angle (a,b), gamma [degree]:                                    90.000000
 CELL| Numerically orthorhombic:                                             YES
 CELL| Periodicity                                                           XYZ

 CELL_REF| Volume [angstrom^3]:                                      2911.992402
 CELL_REF| Vector a [angstrom    13.911     0.000     0.000   |a| =    13.910500
 CELL_REF| Vector b [angstrom     0.000    13.911     0.000   |b| =    13.910500
 CELL_REF| Vector c [angstrom     0.000     0.000    15.049   |c| =    15.048900
 CELL_REF| Angle (b,c), alpha [degree]:                                90.000000
 CELL_REF| Angle (a,c), beta  [degree]:                                90.000000
 CELL_REF| Angle (a,b), gamma [degree]:                                90.000000
 CELL_REF| Numerically orthorhombic:                                         YES
 CELL_REF| Periodicity                                                       XYZ

 *******************************************************************************
 *******************************************************************************
 **                                                                           **
 **     #####                         ##              ##                      **
 **    ##   ##            ##          ##              ##                      **
 **   ##     ##                       ##            ######                    **
 **   ##     ##  ##   ##  ##   #####  ##  ##   ####   ##    #####    #####    **
 **   ##     ##  ##   ##  ##  ##      ## ##   ##      ##   ##   ##  ##   ##   **
 **   ##  ## ##  ##   ##  ##  ##      ####     ###    ##   ######   ######    **
 **    ##  ###   ##   ##  ##  ##      ## ##      ##   ##   ##       ##        **
 **     #######   #####   ##   #####  ##  ##  ####    ##    #####   ##        **
 **           ##                                                    ##        **
 **                                                                           **
 **                                                ... make the atoms dance   **
 **                                                                           **
 **            Copyright (C) by CP2K developers group (2000-2022)             **
 **                      J. Chem. Phys. 152, 194103 (2020)                    **
 **                                                                           **
 *******************************************************************************

 DFT| Spin unrestricted (spin-polarized) Kohn-Sham calculation               UKS
 DFT| Multiplicity                                                             2
 DFT| Number of spin states                                                    2
 DFT| Charge                                                                  -1
 DFT| Self-interaction correction (SIC)                                       NO
 DFT| Cutoffs: density                                              1.000000E-10
 DFT|          gradient                                             1.000000E-10
 DFT|          tau                                                  1.000000E-10
 DFT|          cutoff_smoothing_range                               0.000000E+00
 DFT| XC density smoothing                                                  NONE
 DFT| XC derivatives                                              SPLINE2_SMOOTH

 DFT+U| Method                                                            LOWDIN
 DFT+U| Check atomic kind information for details

 FUNCTIONAL| PBE:
 FUNCTIONAL| J.P.Perdew, K.Burke, M.Ernzerhof, Phys. Rev. Letter, vol. 77, n 18,
 FUNCTIONAL|  pp. 3865-3868, (1996){spin polarized}                             

 vdW POTENTIAL|                                                   Pair Potential
 vdW POTENTIAL|          DFT-D3 (Version 3.1)
 vdW POTENTIAL|          Potential Form: S. Grimme et al, JCP 132: 154104 (2010)
 vdW POTENTIAL|          Zero Damping
 vdW POTENTIAL|          Cutoff Radius [Bohr]:                             20.00
 vdW POTENTIAL|          s6 Scaling Factor:                               1.0000
 vdW POTENTIAL|          sr6 Scaling Factor:                              1.2170
 vdW POTENTIAL|          s8 Scaling Factor:                               0.7220
 vdW POTENTIAL|          Cutoff for CN calculation:                   0.1000E-05

 QS| Method:                                                                 GPW
 QS| Density plane wave grid type                        NON-SPHERICAL FULLSPACE
 QS| Number of grid levels:                                                    5
 QS| Density cutoff [a.u.]:                                                300.0
 QS| Using commensurate multigrids
 QS| Multi grid cutoff [a.u.]: 1) grid level                               300.0
 QS|                           2) grid level                                75.0
 QS|                           3) grid level                                18.8
 QS|                           4) grid level                                 4.7
 QS|                           5) grid level                                 1.2
 QS| Grid level progression factor:                                          4.0
 QS| Relative density cutoff [a.u.]:                                        20.0
 QS| Interaction thresholds: eps_pgf_orb:                                1.0E-06
 QS|                         eps_filter_matrix:                          0.0E+00
 QS|                         eps_core_charge:                            1.0E-14
 QS|                         eps_rho_gspace:                             1.0E-12
 QS|                         eps_rho_rspace:                             1.0E-12
 QS|                         eps_gvg_rspace:                             1.0E-06
 QS|                         eps_ppl:                                    1.0E-02
 QS|                         eps_ppnl:                                   1.0E-08


 ATOMIC KIND INFORMATION

  1. Atomic kind: Ti                                    Number of atoms:      90

     Orbital Basis Set                                        DZVP-MOLOPT-SR-GTH

       Number of orbital shell sets:                                           1
       Number of orbital shells:                                               8
       Number of primitive Cartesian functions:                                6
       Number of Cartesian basis functions:                                   31
       Number of spherical basis functions:                                   26
       Norm type:                                                              2

       Normalised Cartesian orbitals:

                        Set   Shell   Orbital            Exponent    Coefficient

                          1       1    2s                7.884570       0.015554
                                                         3.894698       0.963603
                                                         1.513589      -0.631435
                                                         0.596768      -0.343022
                                                         0.222222      -0.006534
                                                         0.077078       0.007652

                          1       2    3s                7.884570      -0.009340
                                                         3.894698       0.212624
                                                         1.513589      -0.258368
                                                         0.596768      -0.226206
                                                         0.222222       0.039438
                                                         0.077078       0.107179

                          1       3    4s                7.884570       0.276563
                                                         3.894698       0.105452
                                                         1.513589       0.085149
                                                         0.596768       0.882541
                                                         0.222222      -0.696223
                                                         0.077078       0.156638

                          1       4    3px               7.884570      -2.034794
                                                         3.894698       0.782008
                                                         1.513589       1.253903
                                                         0.596768       0.347823
                                                         0.222222       0.016778
                                                         0.077078      -0.000433
                          1       4    3py               7.884570      -2.034794
                                                         3.894698       0.782008
                                                         1.513589       1.253903
                                                         0.596768       0.347823
                                                         0.222222       0.016778
                                                         0.077078      -0.000433
                          1       4    3pz               7.884570      -2.034794
                                                         3.894698       0.782008
                                                         1.513589       1.253903
                                                         0.596768       0.347823
                                                         0.222222       0.016778
                                                         0.077078      -0.000433

                          1       5    4px               7.884570       0.376572
                                                         3.894698      -0.182875
                                                         1.513589      -0.474776
                                                         0.596768      -0.081757
                                                         0.222222       0.064432
                                                         0.077078       0.047279
                          1       5    4py               7.884570       0.376572
                                                         3.894698      -0.182875
                                                         1.513589      -0.474776
                                                         0.596768      -0.081757
                                                         0.222222       0.064432
                                                         0.077078       0.047279
                          1       5    4pz               7.884570       0.376572
                                                         3.894698      -0.182875
                                                         1.513589      -0.474776
                                                         0.596768      -0.081757
                                                         0.222222       0.064432
                                                         0.077078       0.047279

                          1       6    4dx2              7.884570       3.047350
                                                         3.894698       3.289529
                                                         1.513589       1.060616
                                                         0.596768       0.249930
                                                         0.222222       0.038806
                                                         0.077078       0.002319
                          1       6    4dxy              7.884570       5.278165
                                                         3.894698       5.697631
                                                         1.513589       1.837041
                                                         0.596768       0.432892
                                                         0.222222       0.067214
                                                         0.077078       0.004017
                          1       6    4dxz              7.884570       5.278165
                                                         3.894698       5.697631
                                                         1.513589       1.837041
                                                         0.596768       0.432892
                                                         0.222222       0.067214
                                                         0.077078       0.004017
                          1       6    4dy2              7.884570       3.047350
                                                         3.894698       3.289529
                                                         1.513589       1.060616
                                                         0.596768       0.249930
                                                         0.222222       0.038806
                                                         0.077078       0.002319
                          1       6    4dyz              7.884570       5.278165
                                                         3.894698       5.697631
                                                         1.513589       1.837041
                                                         0.596768       0.432892
                                                         0.222222       0.067214
                                                         0.077078       0.004017
                          1       6    4dz2              7.884570       3.047350
                                                         3.894698       3.289529
                                                         1.513589       1.060616
                                                         0.596768       0.249930
                                                         0.222222       0.038806
                                                         0.077078       0.002319

                          1       7    5dx2              7.884570      -2.119015
                                                         3.894698      -1.237751
                                                         1.513589      -0.746777
                                                         0.596768      -0.071514
                                                         0.222222       0.004086
                                                         0.077078       0.017595
                          1       7    5dxy              7.884570      -3.670241
                                                         3.894698      -2.143848
                                                         1.513589      -1.293455
                                                         0.596768      -0.123865
                                                         0.222222       0.007077
                                                         0.077078       0.030475
                          1       7    5dxz              7.884570      -3.670241
                                                         3.894698      -2.143848
                                                         1.513589      -1.293455
                                                         0.596768      -0.123865
                                                         0.222222       0.007077
                                                         0.077078       0.030475
                          1       7    5dy2              7.884570      -2.119015
                                                         3.894698      -1.237751
                                                         1.513589      -0.746777
                                                         0.596768      -0.071514
                                                         0.222222       0.004086
                                                         0.077078       0.017595
                          1       7    5dyz              7.884570      -3.670241
                                                         3.894698      -2.143848
                                                         1.513589      -1.293455
                                                         0.596768      -0.123865
                                                         0.222222       0.007077
                                                         0.077078       0.030475
                          1       7    5dz2              7.884570      -2.119015
                                                         3.894698      -1.237751
                                                         1.513589      -0.746777
                                                         0.596768      -0.071514
                                                         0.222222       0.004086
                                                         0.077078       0.017595

                          1       8    5fx3              7.884570      -0.342058
                                                         3.894698       0.375798
                                                         1.513589      -0.706469
                                                         0.596768      -0.229994
                                                         0.222222      -0.012723
                                                         0.077078       0.003932
                          1       8    5fx2y             7.884570      -0.764866
                                                         3.894698       0.840310
                                                         1.513589      -1.579712
                                                         0.596768      -0.514282
                                                         0.222222      -0.028450
                                                         0.077078       0.008792
                          1       8    5fx2z             7.884570      -0.764866
                                                         3.894698       0.840310
                                                         1.513589      -1.579712
                                                         0.596768      -0.514282
                                                         0.222222      -0.028450
                                                         0.077078       0.008792
                          1       8    5fxy2             7.884570      -0.764866
                                                         3.894698       0.840310
                                                         1.513589      -1.579712
                                                         0.596768      -0.514282
                                                         0.222222      -0.028450
                                                         0.077078       0.008792
                          1       8    5fxyz             7.884570      -1.324787
                                                         3.894698       1.455460
                                                         1.513589      -2.736142
                                                         0.596768      -0.890763
                                                         0.222222      -0.049276
                                                         0.077078       0.015229
                          1       8    5fxz2             7.884570      -0.764866
                                                         3.894698       0.840310
                                                         1.513589      -1.579712
                                                         0.596768      -0.514282
                                                         0.222222      -0.028450
                                                         0.077078       0.008792
                          1       8    5fy3              7.884570      -0.342058
                                                         3.894698       0.375798
                                                         1.513589      -0.706469
                                                         0.596768      -0.229994
                                                         0.222222      -0.012723
                                                         0.077078       0.003932
                          1       8    5fy2z             7.884570      -0.764866
                                                         3.894698       0.840310
                                                         1.513589      -1.579712
                                                         0.596768      -0.514282
                                                         0.222222      -0.028450
                                                         0.077078       0.008792
                          1       8    5fyz2             7.884570      -0.764866
                                                         3.894698       0.840310
                                                         1.513589      -1.579712
                                                         0.596768      -0.514282
                                                         0.222222      -0.028450
                                                         0.077078       0.008792
                          1       8    5fz3              7.884570      -0.342058
                                                         3.894698       0.375798
                                                         1.513589      -0.706469
                                                         0.596768      -0.229994
                                                         0.222222      -0.012723
                                                         0.077078       0.003932

       Atomic covalent radius [Angstrom]:                                  1.320

       Atomic van der Waals radius [Angstrom]:                             1.760

     GTH Potential information for                                   GTH-PBE-q12

       Description:                       Goedecker-Teter-Hutter pseudopotential
                                           Goedecker et al., PRB 54, 1703 (1996)
                                          Hartwigsen et al., PRB 58, 3641 (1998)
                                                      Krack, TCA 114, 145 (2005)

       Gaussian exponent of the core charge distribution:               3.462604
       Electronic configuration (s p d ...):                           4   6   2

       Parameters of the local part of the GTH pseudopotential:

                          rloc        C1          C2          C3          C4
                        0.380000    8.711442   -0.700287

       Parameters of the non-local part of the GTH pseudopotential:

                   l      r(l)      h(i,j,l)

                   0    0.337771    2.575264    3.692971
                                    3.692971   -4.767605
                   1    0.242531   -4.630541    8.870875
                                    8.870875  -10.496161
                   2    0.243317   -9.406653

     A DFT+U correction is applied to atoms of this atomic kind:
       Angular quantum momentum number L:                                      2
       U(eff) = (U - J) value in [eV]:                                     4.200

  2. Atomic kind: O                                     Number of atoms:     180

     Orbital Basis Set                                        DZVP-MOLOPT-SR-GTH

       Number of orbital shell sets:                                           1
       Number of orbital shells:                                               5
       Number of primitive Cartesian functions:                                5
       Number of Cartesian basis functions:                                   14
       Number of spherical basis functions:                                   13
       Norm type:                                                              2

       Normalised Cartesian orbitals:

                        Set   Shell   Orbital            Exponent    Coefficient

                          1       1    2s               10.389228       0.396646
                                                         3.849621       0.208811
                                                         1.388401      -0.301641
                                                         0.496955      -0.274061
                                                         0.162492      -0.033677

                          1       2    3s               10.389228       0.303673
                                                         3.849621       0.240943
                                                         1.388401      -0.313066
                                                         0.496955      -0.043055
                                                         0.162492       0.213991

                          1       3    3px              10.389228      -1.530415
                                                         3.849621      -1.371928
                                                         1.388401      -0.761951
                                                         0.496955      -0.253695
                                                         0.162492      -0.035541
                          1       3    3py              10.389228      -1.530415
                                                         3.849621      -1.371928
                                                         1.388401      -0.761951
                                                         0.496955      -0.253695
                                                         0.162492      -0.035541
                          1       3    3pz              10.389228      -1.530415
                                                         3.849621      -1.371928
                                                         1.388401      -0.761951
                                                         0.496955      -0.253695
                                                         0.162492      -0.035541

                          1       4    4px              10.389228      -0.565392
                                                         3.849621      -0.038231
                                                         1.388401      -0.382373
                                                         0.496955       0.179070
                                                         0.162492       0.122714
                          1       4    4py              10.389228      -0.565392
                                                         3.849621      -0.038231
                                                         1.388401      -0.382373
                                                         0.496955       0.179070
                                                         0.162492       0.122714
                          1       4    4pz              10.389228      -0.565392
                                                         3.849621      -0.038231
                                                         1.388401      -0.382373
                                                         0.496955       0.179070
                                                         0.162492       0.122714

                          1       5    4dx2             10.389228       1.867377
                                                         3.849621       0.670994
                                                         1.388401       1.353441
                                                         0.496955       0.273538
                                                         0.162492       0.006620
                          1       5    4dxy             10.389228       3.234392
                                                         3.849621       1.162195
                                                         1.388401       2.344229
                                                         0.496955       0.473781
                                                         0.162492       0.011466
                          1       5    4dxz             10.389228       3.234392
                                                         3.849621       1.162195
                                                         1.388401       2.344229
                                                         0.496955       0.473781
                                                         0.162492       0.011466
                          1       5    4dy2             10.389228       1.867377
                                                         3.849621       0.670994
                                                         1.388401       1.353441
                                                         0.496955       0.273538
                                                         0.162492       0.006620
                          1       5    4dyz             10.389228       3.234392
                                                         3.849621       1.162195
                                                         1.388401       2.344229
                                                         0.496955       0.473781
                                                         0.162492       0.011466
                          1       5    4dz2             10.389228       1.867377
                                                         3.849621       0.670994
                                                         1.388401       1.353441
                                                         0.496955       0.273538
                                                         0.162492       0.006620

       Atomic covalent radius [Angstrom]:                                  0.730

       Atomic van der Waals radius [Angstrom]:                             1.520

     GTH Potential information for                                    GTH-PBE-q6

       Description:                       Goedecker-Teter-Hutter pseudopotential
                                           Goedecker et al., PRB 54, 1703 (1996)
                                          Hartwigsen et al., PRB 58, 3641 (1998)
                                                      Krack, TCA 114, 145 (2005)

       Gaussian exponent of the core charge distribution:               8.360253
       Electronic configuration (s p d ...):                               2   4

       Parameters of the local part of the GTH pseudopotential:

                          rloc        C1          C2          C3          C4
                        0.244554  -16.667215    2.487311

       Parameters of the non-local part of the GTH pseudopotential:

                   l      r(l)      h(i,j,l)

                   0    0.220956   18.337458
                   1    0.211332


 MOLECULE KIND INFORMATION


 All atoms are their own molecule, skipping detailed information


 TOTAL NUMBERS AND MAXIMUM NUMBERS

  Total number of            - Atomic kinds:                                   2
                             - Atoms:                                        270
                             - Shell sets:                                   270
                             - Shells:                                      1620
                             - Primitive Cartesian functions:               1440
                             - Cartesian basis functions:                   5310
                             - Spherical basis functions:                   4680

  Maximum angular momentum of- Orbital basis functions:                        3
                             - Local part of the GTH pseudopotential:          2
                             - Non-local part of the GTH pseudopotential:      3


 MODULE QUICKSTEP: ATOMIC COORDINATES IN ANGSTROM

   Atom Kind Element         X             Y             Z       Z(eff)     Mass
      1    1 Ti   22      0.028726     -0.028596     -0.000460  12.0000  47.8670
      2    1 Ti   22      2.350859      2.293399      1.506024  12.0000  47.8670
      3    1 Ti   22      4.664073     -0.027640     -0.000245  12.0000  47.8670
      4    1 Ti   22      6.982041      2.291180      1.504521  12.0000  47.8670
      5    1 Ti   22      9.304136     -0.030139     -0.000105  12.0000  47.8670
      6    1 Ti   22     11.620019      2.290383      1.504535  12.0000  47.8670
      7    1 Ti   22      0.029878      4.606394     -0.000212  12.0000  47.8670
      8    1 Ti   22      2.348603      6.924521      1.504689  12.0000  47.8670
      9    1 Ti   22      4.678492      4.620797     -0.000045  12.0000  47.8670
     10    1 Ti   22      6.983788      6.926596      1.523173  12.0000  47.8670
     11    1 Ti   22      9.301422      4.608956     -0.000102  12.0000  47.8670
     12    1 Ti   22     11.619184      6.928496      1.504455  12.0000  47.8670
     13    1 Ti   22      0.027499      9.246481      0.000223  12.0000  47.8670
     14    1 Ti   22      2.347929     11.562546      1.504620  12.0000  47.8670
     15    1 Ti   22      4.666663      9.243779      0.000172  12.0000  47.8670
     16    1 Ti   22      6.985960     11.561789      1.504495  12.0000  47.8670
     17    1 Ti   22      9.289623      9.231937     -0.000066  12.0000  47.8670
     18    1 Ti   22     11.617214     11.559741      1.506247  12.0000  47.8670
     19    1 Ti   22      0.029199     -0.028722      3.008104  12.0000  47.8670
     20    1 Ti   22      2.350185      2.292749      4.518808  12.0000  47.8670
     21    1 Ti   22      4.668053     -0.030127      3.010133  12.0000  47.8670
     22    1 Ti   22      6.977407      2.294904      4.514056  12.0000  47.8670
     23    1 Ti   22      9.299762     -0.027549      3.010249  12.0000  47.8670
     24    1 Ti   22     11.620852      2.289549      4.513092  12.0000  47.8670
     25    1 Ti   22      0.027489      4.610508      3.010178  12.0000  47.8670
     26    1 Ti   22      2.352367      6.920030      4.514274  12.0000  47.8670
     27    1 Ti   22      4.675154      4.617555      3.009602  12.0000  47.8670
     28    1 Ti   22      6.984193      6.926239      4.559025  12.0000  47.8670
     29    1 Ti   22      9.300538      4.609681      3.012009  12.0000  47.8670
     30    1 Ti   22     11.615292      6.933009      4.513972  12.0000  47.8670
     31    1 Ti   22      0.030140      9.242257      3.010578  12.0000  47.8670
     32    1 Ti   22      2.347600     11.562809      4.513338  12.0000  47.8670
     33    1 Ti   22      4.667268      9.243108      3.012477  12.0000  47.8670
     34    1 Ti   22      6.990261     11.558025      4.514085  12.0000  47.8670
     35    1 Ti   22      9.292577      9.235090      3.009611  12.0000  47.8670
     36    1 Ti   22     11.617886     11.560296      4.518634  12.0000  47.8670
     37    1 Ti   22      0.029222     -0.028939      6.017331  12.0000  47.8670
     38    1 Ti   22      2.353663      2.296425      7.524220  12.0000  47.8670
     39    1 Ti   22      4.665216     -0.029838      6.018298  12.0000  47.8670
     40    1 Ti   22      6.982180      2.289285      7.524372  12.0000  47.8670
     41    1 Ti   22      9.302957     -0.027878      6.018297  12.0000  47.8670
     42    1 Ti   22     11.624487      2.285757      7.524135  12.0000  47.8670
     43    1 Ti   22      0.027553      4.607509      6.018237  12.0000  47.8670
     44    1 Ti   22      2.346725      6.924445      7.524516  12.0000  47.8670
     45    1 Ti   22      4.680026      4.622359      6.019509  12.0000  47.8670
     46    1 Ti   22      6.984782      6.926057      7.524462  12.0000  47.8670
     47    1 Ti   22      9.302608      4.607543      6.022554  12.0000  47.8670
     48    1 Ti   22     11.620903      6.928335      7.524280  12.0000  47.8670
     49    1 Ti   22      0.029670      9.245248      6.018742  12.0000  47.8670
     50    1 Ti   22      2.344287     11.566218      7.524230  12.0000  47.8670
     51    1 Ti   22      4.666090      9.244256      6.022983  12.0000  47.8670
     52    1 Ti   22      6.985940     11.563653      7.524353  12.0000  47.8670
     53    1 Ti   22      9.288459      9.230964      6.019482  12.0000  47.8670
     54    1 Ti   22     11.614591     11.557258      7.524438  12.0000  47.8670
     55    1 Ti   22      0.029239     -0.028945      9.030614  12.0000  47.8670
     56    1 Ti   22      2.350198      2.292737     10.529662  12.0000  47.8670
     57    1 Ti   22      4.665241     -0.029819      9.030087  12.0000  47.8670
     58    1 Ti   22      6.977456      2.294907     10.534711  12.0000  47.8670
     59    1 Ti   22      9.302965     -0.027874      9.030333  12.0000  47.8670
     60    1 Ti   22     11.620868      2.289570     10.535180  12.0000  47.8670
     61    1 Ti   22      0.027593      4.607517      9.030192  12.0000  47.8670
     62    1 Ti   22      2.352397      6.920039     10.534784  12.0000  47.8670
     63    1 Ti   22      4.680023      4.622338      9.029277  12.0000  47.8670
     64    1 Ti   22      6.984194      6.926239     10.489857  12.0000  47.8670
     65    1 Ti   22      9.302612      4.607561      9.026090  12.0000  47.8670
     66    1 Ti   22     11.615342      6.933017     10.534593  12.0000  47.8670
     67    1 Ti   22      0.029711      9.245252      9.030568  12.0000  47.8670
     68    1 Ti   22      2.347628     11.562816     10.535131  12.0000  47.8670
     69    1 Ti   22      4.666106      9.244258      9.026223  12.0000  47.8670
     70    1 Ti   22      6.990288     11.558019     10.534634  12.0000  47.8670
     71    1 Ti   22      9.288473      9.230964      9.029240  12.0000  47.8670
     72    1 Ti   22     11.617898     11.560285     10.530257  12.0000  47.8670
     73    1 Ti   22      0.029189     -0.028712     12.039858  12.0000  47.8670
     74    1 Ti   22      2.350865      2.293392     13.542460  12.0000  47.8670
     75    1 Ti   22      4.668095     -0.030122     12.038270  12.0000  47.8670
     76    1 Ti   22      6.982061      2.291163     13.544264  12.0000  47.8670
     77    1 Ti   22      9.299798     -0.027543     12.038413  12.0000  47.8670
     78    1 Ti   22     11.620013      2.290390     13.543769  12.0000  47.8670
     79    1 Ti   22      0.027507      4.610511     12.038280  12.0000  47.8670
     80    1 Ti   22      2.348615      6.924517     13.544385  12.0000  47.8670
     81    1 Ti   22      4.675176      4.617547     12.039200  12.0000  47.8670
     82    1 Ti   22      6.983800      6.926606     13.525724  12.0000  47.8670
     83    1 Ti   22      9.300576      4.609702     12.036666  12.0000  47.8670
     84    1 Ti   22     11.619195      6.928486     13.544147  12.0000  47.8670
     85    1 Ti   22      0.030162      9.242273     12.038760  12.0000  47.8670
     86    1 Ti   22      2.347934     11.562575     13.543872  12.0000  47.8670
     87    1 Ti   22      4.667281      9.243139     12.036763  12.0000  47.8670
     88    1 Ti   22      6.985987     11.561790     13.544244  12.0000  47.8670
     89    1 Ti   22      9.292612      9.235093     12.039138  12.0000  47.8670
     90    1 Ti   22     11.617227     11.559751     13.542677  12.0000  47.8670
     91    2 O     8      1.446594      1.388662     -0.000009   6.0000  15.9994
     92    2 O     8      3.246077      3.188103     -0.000003   6.0000  15.9994
     93    2 O     8      0.926913      3.709744      1.504621   6.0000  15.9994
     94    2 O     8      3.767708      0.868879      1.504593   6.0000  15.9994
     95    2 O     8      6.085175      1.388761     -0.000004   6.0000  15.9994
     96    2 O     8      7.883961      3.188336      0.000000   6.0000  15.9994
     97    2 O     8      5.565797      3.705286      1.503252   6.0000  15.9994
     98    2 O     8      8.402955      0.871468      1.504652   6.0000  15.9994
     99    2 O     8     10.721407      1.389988     -0.000004   6.0000  15.9994
    100    2 O     8     12.520458      3.189154     -0.000006   6.0000  15.9994
    101    2 O     8     10.203664      3.706827      1.504598   6.0000  15.9994
    102    2 O     8     13.039023      0.871568      1.504502   6.0000  15.9994
    103    2 O     8      1.446701      6.027237     -0.000001   6.0000  15.9994
    104    2 O     8      3.246282      7.825991      0.000009   6.0000  15.9994
    105    2 O     8      0.929434      8.344930      1.504665   6.0000  15.9994
    106    2 O     8      3.763338      5.507681      1.503258   6.0000  15.9994
    107    2 O     8      6.082156      6.024267      0.000007   6.0000  15.9994
    108    2 O     8      7.886334      7.828435      0.000001   6.0000  15.9994
    109    2 O     8      5.562526      8.347945      1.504478   6.0000  15.9994
    110    2 O     8      8.406064      5.504493      1.504509   6.0000  15.9994
    111    2 O     8     10.722188      6.026565     -0.000001   6.0000  15.9994
    112    2 O     8     12.521709      7.825398      0.000009   6.0000  15.9994
    113    2 O     8     10.205200      8.344787      1.503245   6.0000  15.9994
    114    2 O     8     13.039106      5.507563      1.504628   6.0000  15.9994
    115    2 O     8      1.447988     10.663459      0.000013   6.0000  15.9994
    116    2 O     8      3.247042     12.462565     -0.000010   6.0000  15.9994
    117    2 O     8      0.929501     12.981046      1.504557   6.0000  15.9994
    118    2 O     8      3.764866     10.145623      1.504605   6.0000  15.9994
    119    2 O     8      6.084551     10.664153      0.000007   6.0000  15.9994
    120    2 O     8      7.883272     12.463816      0.000001   6.0000  15.9994
    121    2 O     8      5.565479     12.981022      1.504633   6.0000  15.9994
    122    2 O     8      8.402759     10.147296      1.503240   6.0000  15.9994
    123    2 O     8     10.722524     10.664510     -0.000002   6.0000  15.9994
    124    2 O     8     12.521902     12.463961     -0.000012   6.0000  15.9994
    125    2 O     8     10.200696     12.983652      1.504602   6.0000  15.9994
    126    2 O     8     13.041684     10.142776      1.504619   6.0000  15.9994
    127    2 O     8      1.446034      1.388080      3.008891   6.0000  15.9994
    128    2 O     8      3.244888      3.186938      3.007524   6.0000  15.9994
    129    2 O     8      0.926854      3.709777      4.514430   6.0000  15.9994
    130    2 O     8      3.767753      0.868842      4.514420   6.0000  15.9994
    131    2 O     8      6.085652      1.387538      3.008291   6.0000  15.9994
    132    2 O     8      7.883766      3.188191      3.009339   6.0000  15.9994
    133    2 O     8      5.560612      3.695557      4.505797   6.0000  15.9994
    134    2 O     8      8.402768      0.870743      4.514533   6.0000  15.9994
    135    2 O     8     10.721437      1.390083      3.009609   6.0000  15.9994
    136    2 O     8     12.520359      3.189119      3.009581   6.0000  15.9994
    137    2 O     8     10.204332      3.706133      4.514453   6.0000  15.9994
    138    2 O     8     13.038973      0.871603      4.514026   6.0000  15.9994
    139    2 O     8      1.445512      6.027703      3.008321   6.0000  15.9994
    140    2 O     8      3.246105      7.825833      3.009327   6.0000  15.9994
    141    2 O     8      0.928710      8.344749      4.514559   6.0000  15.9994
    142    2 O     8      3.753719      5.502523      4.505736   6.0000  15.9994
    143    2 O     8      6.080710      6.022768      2.996483   6.0000  15.9994
    144    2 O     8      7.887821      7.829989      2.996290   6.0000  15.9994
    145    2 O     8      5.560835      8.349581      4.513428   6.0000  15.9994
    146    2 O     8      8.407605      5.502927      4.513424   6.0000  15.9994
    147    2 O     8     10.722327      6.026737      3.009338   6.0000  15.9994
    148    2 O     8     12.522860      7.824927      3.008376   6.0000  15.9994
    149    2 O     8     10.214630      8.349820      4.505817   6.0000  15.9994
    150    2 O     8     13.039855      5.507706      4.514566   6.0000  15.9994
    151    2 O     8      1.448091     10.663432      3.009576   6.0000  15.9994
    152    2 O     8      3.247069     12.462450      3.009593   6.0000  15.9994
    153    2 O     8      0.929530     12.980973      4.514037   6.0000  15.9994
    154    2 O     8      3.764104     10.146348      4.514330   6.0000  15.9994
    155    2 O     8      6.084694     10.664344      3.009381   6.0000  15.9994
    156    2 O     8      7.882773     12.465031      3.008301   6.0000  15.9994
    157    2 O     8      5.565640     12.981794      4.514582   6.0000  15.9994
    158    2 O     8      8.407947     10.156946      4.505762   6.0000  15.9994
    159    2 O     8     10.723675     10.665636      3.007601   6.0000  15.9994
    160    2 O     8     12.522368     12.464442      3.008893   6.0000  15.9994
    161    2 O     8     10.200614     12.983703      4.514514   6.0000  15.9994
    162    2 O     8     13.041736     10.142752      4.514488   6.0000  15.9994
    163    2 O     8      1.444413      1.386487      6.018388   6.0000  15.9994
    164    2 O     8      3.240789      3.182936      6.018202   6.0000  15.9994
    165    2 O     8      0.926775      3.709713      7.524434   6.0000  15.9994
    166    2 O     8      3.767678      0.868765      7.524434   6.0000  15.9994
    167    2 O     8      6.084805      1.389084      6.020093   6.0000  15.9994
    168    2 O     8      7.883002      3.188476      6.018756   6.0000  15.9994
    169    2 O     8      5.566299      3.707065      7.524438   6.0000  15.9994
    170    2 O     8      8.402565      0.871764      7.524440   6.0000  15.9994
    171    2 O     8     10.721630      1.389636      6.019501   6.0000  15.9994
    172    2 O     8     12.520789      3.188945      6.019476   6.0000  15.9994
    173    2 O     8     10.205577      3.704829      7.524431   6.0000  15.9994
    174    2 O     8     13.038994      0.871577      7.524427   6.0000  15.9994
    175    2 O     8      1.447108      6.026846      6.020080   6.0000  15.9994
    176    2 O     8      3.246455      7.825046      6.018755   6.0000  15.9994
    177    2 O     8      0.929701      8.344486      7.524449   6.0000  15.9994
    178    2 O     8      3.765121      5.508227      7.524441   6.0000  15.9994
    179    2 O     8      6.048038      5.990261      5.951834   6.0000  15.9994
    180    2 O     8      7.920022      7.862500      5.951794   6.0000  15.9994
    181    2 O     8      5.557288      8.353150      7.524445   6.0000  15.9994
    182    2 O     8      8.411166      5.499342      7.524438   6.0000  15.9994
    183    2 O     8     10.722030      6.027469      6.018795   6.0000  15.9994
    184    2 O     8     12.521273      7.825769      6.020092   6.0000  15.9994
    185    2 O     8     10.203280      8.344263      7.524433   6.0000  15.9994
    186    2 O     8     13.038849      5.507976      7.524435   6.0000  15.9994
    187    2 O     8      1.447737     10.663584      6.019468   6.0000  15.9994
    188    2 O     8      3.246920     12.462814      6.019457   6.0000  15.9994
    189    2 O     8      0.929539     12.980983      7.524428   6.0000  15.9994
    190    2 O     8      3.762875     10.147584      7.524434   6.0000  15.9994
    191    2 O     8      6.085451     10.664029      6.018760   6.0000  15.9994
    192    2 O     8      7.883578     12.463438      6.020116   6.0000  15.9994
    193    2 O     8      5.565832     12.980795      7.524435   6.0000  15.9994
    194    2 O     8      8.402217     10.145515      7.524434   6.0000  15.9994
    195    2 O     8     10.727596     10.669559      6.018216   6.0000  15.9994
    196    2 O     8     12.523967     12.466074      6.018482   6.0000  15.9994
    197    2 O     8     10.200702     12.983779      7.524441   6.0000  15.9994
    198    2 O     8     13.041907     10.142782      7.524446   6.0000  15.9994
    199    2 O     8      1.444416      1.386484      9.030469   6.0000  15.9994
    200    2 O     8      3.240787      3.182931      9.030656   6.0000  15.9994
    201    2 O     8      0.926852      3.709780     10.534441   6.0000  15.9994
    202    2 O     8      3.767759      0.868841     10.534455   6.0000  15.9994
    203    2 O     8      6.084805      1.389084      9.028775   6.0000  15.9994
    204    2 O     8      7.883001      3.188479      9.030122   6.0000  15.9994
    205    2 O     8      5.560608      3.695560     10.543089   6.0000  15.9994
    206    2 O     8      8.402773      0.870742     10.534355   6.0000  15.9994
    207    2 O     8     10.721632      1.389641      9.029369   6.0000  15.9994
    208    2 O     8     12.520784      3.188941      9.029391   6.0000  15.9994
    209    2 O     8     10.204331      3.706141     10.534428   6.0000  15.9994
    210    2 O     8     13.038975      0.871600     10.534834   6.0000  15.9994
    211    2 O     8      1.447109      6.026846      9.028804   6.0000  15.9994
    212    2 O     8      3.246456      7.825042      9.030141   6.0000  15.9994
    213    2 O     8      0.928710      8.344755     10.534342   6.0000  15.9994
    214    2 O     8      3.753721      5.502519     10.543157   6.0000  15.9994
    215    2 O     8      6.048030      5.990253      9.097043   6.0000  15.9994
    216    2 O     8      7.920034      7.862506      9.097084   6.0000  15.9994
    217    2 O     8      5.560829      8.349590     10.535464   6.0000  15.9994
    218    2 O     8      8.407608      5.502926     10.535452   6.0000  15.9994
    219    2 O     8     10.722033      6.027475      9.030084   6.0000  15.9994
    220    2 O     8     12.521270      7.825765      9.028800   6.0000  15.9994
    221    2 O     8     10.214632      8.349826     10.543061   6.0000  15.9994
    222    2 O     8     13.039860      5.507703     10.534313   6.0000  15.9994
    223    2 O     8      1.447735     10.663585      9.029423   6.0000  15.9994
    224    2 O     8      3.246918     12.462815      9.029417   6.0000  15.9994
    225    2 O     8      0.929529     12.980976     10.534820   6.0000  15.9994
    226    2 O     8      3.764113     10.146341     10.534560   6.0000  15.9994
    227    2 O     8      6.085456     10.664030      9.030134   6.0000  15.9994
    228    2 O     8      7.883578     12.463435      9.028768   6.0000  15.9994
    229    2 O     8      5.565642     12.981800     10.534300   6.0000  15.9994
    230    2 O     8      8.407952     10.156946     10.543113   6.0000  15.9994
    231    2 O     8     10.727602     10.669560      9.030656   6.0000  15.9994
    232    2 O     8     12.523968     12.466068      9.030373   6.0000  15.9994
    233    2 O     8     10.200614     12.983708     10.534375   6.0000  15.9994
    234    2 O     8     13.041740     10.142751     10.534415   6.0000  15.9994
    235    2 O     8      1.446036      1.388082     12.039984   6.0000  15.9994
    236    2 O     8      3.244886      3.186936     12.041358   6.0000  15.9994
    237    2 O     8      0.926911      3.709743     13.544268   6.0000  15.9994
    238    2 O     8      3.767711      0.868882     13.544292   6.0000  15.9994
    239    2 O     8      6.085656      1.387540     12.040595   6.0000  15.9994
    240    2 O     8      7.883763      3.188182     12.039545   6.0000  15.9994
    241    2 O     8      5.565796      3.705288     13.545651   6.0000  15.9994
    242    2 O     8      8.402959      0.871466     13.544250   6.0000  15.9994
    243    2 O     8     10.721438      1.390085     12.039276   6.0000  15.9994
    244    2 O     8     12.520355      3.189113     12.039298   6.0000  15.9994
    245    2 O     8     10.203662      3.706829     13.544291   6.0000  15.9994
    246    2 O     8     13.039023      0.871566     13.544369   6.0000  15.9994
    247    2 O     8      1.445518      6.027706     12.040575   6.0000  15.9994
    248    2 O     8      3.246104      7.825830     12.039577   6.0000  15.9994
    249    2 O     8      0.929434      8.344935     13.544252   6.0000  15.9994
    250    2 O     8      3.763340      5.507679     13.545650   6.0000  15.9994
    251    2 O     8      6.080715      6.022767     12.052408   6.0000  15.9994
    252    2 O     8      7.887822      7.829980     12.052603   6.0000  15.9994
    253    2 O     8      5.562530      8.347942     13.544431   6.0000  15.9994
    254    2 O     8      8.406067      5.504491     13.544391   6.0000  15.9994
    255    2 O     8     10.722330      6.026738     12.039561   6.0000  15.9994
    256    2 O     8     12.522858      7.824923     12.040527   6.0000  15.9994
    257    2 O     8     10.205201      8.344793     13.545647   6.0000  15.9994
    258    2 O     8     13.039112      5.507560     13.544262   6.0000  15.9994
    259    2 O     8      1.448096     10.663439     12.039317   6.0000  15.9994
    260    2 O     8      3.247065     12.462446     12.039300   6.0000  15.9994
    261    2 O     8      0.929493     12.981056     13.544320   6.0000  15.9994
    262    2 O     8      3.764864     10.145625     13.544290   6.0000  15.9994
    263    2 O     8      6.084699     10.664343     12.039519   6.0000  15.9994
    264    2 O     8      7.882773     12.465022     12.040598   6.0000  15.9994
    265    2 O     8      5.565483     12.981026     13.544258   6.0000  15.9994
    266    2 O     8      8.402761     10.147295     13.545657   6.0000  15.9994
    267    2 O     8     10.723680     10.665636     12.041284   6.0000  15.9994
    268    2 O     8     12.522367     12.464437     12.039984   6.0000  15.9994
    269    2 O     8     10.200695     12.983653     13.544299   6.0000  15.9994
    270    2 O     8     13.041688     10.142773     13.544293   6.0000  15.9994



 SCF PARAMETERS         Density guess:                                   RESTART
                        --------------------------------------------------------
                        max_scf:                                             200
                        max_scf_history:                                       0
                        max_diis:                                              4
                        --------------------------------------------------------
                        eps_scf:                                        1.00E-06
                        eps_scf_history:                                0.00E+00
                        eps_diis:                                       1.00E-01
                        eps_eigval:                                     1.00E-05
                        --------------------------------------------------------
                        level_shift [a.u.]:                             0.000000
                        --------------------------------------------------------
                        Outer loop SCF in use 
                        No variables optimised in outer loop
                        eps_scf                                         1.00E-06
                        max_scf                                              100
                        No outer loop optimization
                        step_size                                       5.00E-01

 PW_GRID| Information for grid number                                          1
 PW_GRID| Grid distributed over                                    32 processors
 PW_GRID| Real space group dimensions                                    32    1
 PW_GRID| the grid is blocked:                                                NO
 PW_GRID| Cutoff [a.u.]                                                    300.0
 PW_GRID| spherical cutoff:                                                   NO
 PW_GRID|   Bounds   1           -120     119                Points:         240
 PW_GRID|   Bounds   2           -120     119                Points:         240
 PW_GRID|   Bounds   3           -120     119                Points:         240
 PW_GRID| Volume element (a.u.^3)  0.1422E-02     Volume (a.u.^3)     19651.0990
 PW_GRID| Grid span                                                    FULLSPACE
 PW_GRID|   Distribution                         Average         Max         Min
 PW_GRID|   G-Vectors                           432000.0      432000      432000
 PW_GRID|   G-Rays                                1800.0        1800        1800
 PW_GRID|   Real Space Points                   432000.0      460800      403200

 PW_GRID| Information for grid number                                          2
 PW_GRID| Number of the reference grid                                         1
 PW_GRID| Grid distributed over                                    32 processors
 PW_GRID| Real space group dimensions                                    32    1
 PW_GRID| the grid is blocked:                                                NO
 PW_GRID| Cutoff [a.u.]                                                     75.0
 PW_GRID| spherical cutoff:                                                   NO
 PW_GRID|   Bounds   1            -60      59                Points:         120
 PW_GRID|   Bounds   2            -60      59                Points:         120
 PW_GRID|   Bounds   3            -60      59                Points:         120
 PW_GRID| Volume element (a.u.^3)  0.1137E-01     Volume (a.u.^3)     19651.0990
 PW_GRID| Grid span                                                    FULLSPACE
 PW_GRID|   Distribution                         Average         Max         Min
 PW_GRID|   G-Vectors                            54000.0       54120       53880
 PW_GRID|   G-Rays                                 450.0         451         449
 PW_GRID|   Real Space Points                    54000.0       57600       43200

 PW_GRID| Information for grid number                                          3
 PW_GRID| Number of the reference grid                                         1
 PW_GRID| Grid distributed over                                    32 processors
 PW_GRID| Real space group dimensions                                    32    1
 PW_GRID| the grid is blocked:                                                NO
 PW_GRID| Cutoff [a.u.]                                                     18.8
 PW_GRID| spherical cutoff:                                                   NO
 PW_GRID|   Bounds   1            -30      29                Points:          60
 PW_GRID|   Bounds   2            -30      29                Points:          60
 PW_GRID|   Bounds   3            -30      29                Points:          60
 PW_GRID| Volume element (a.u.^3)  0.9098E-01     Volume (a.u.^3)     19651.0990
 PW_GRID| Grid span                                                    FULLSPACE
 PW_GRID|   Distribution                         Average         Max         Min
 PW_GRID|   G-Vectors                             6750.0        6780        6720
 PW_GRID|   G-Rays                                 112.5         113         112
 PW_GRID|   Real Space Points                     6750.0        7200        3600

 PW_GRID| Information for grid number                                          4
 PW_GRID| Number of the reference grid                                         1
 PW_GRID| Grid distributed over                                    32 processors
 PW_GRID| Real space group dimensions                                    32    1
 PW_GRID| the grid is blocked:                                                NO
 PW_GRID| Cutoff [a.u.]                                                      4.7
 PW_GRID| spherical cutoff:                                                   NO
 PW_GRID|   Bounds   1            -15      14                Points:          30
 PW_GRID|   Bounds   2            -15      14                Points:          30
 PW_GRID|   Bounds   3            -15      14                Points:          30
 PW_GRID| Volume element (a.u.^3)  0.7278         Volume (a.u.^3)     19651.0990
 PW_GRID| Grid span                                                    FULLSPACE
 PW_GRID|   Distribution                         Average         Max         Min
 PW_GRID|   G-Vectors                              843.8         930         780
 PW_GRID|   G-Rays                                  28.1          31          26
 PW_GRID|   Real Space Points                      843.8         900           0

 PW_GRID| Information for grid number                                          5
 PW_GRID| Number of the reference grid                                         1
 PW_GRID| Grid distributed over                                    32 processors
 PW_GRID| Real space group dimensions                                    32    1
 PW_GRID| the grid is blocked:                                                NO
 PW_GRID| Cutoff [a.u.]                                                      1.2
 PW_GRID| spherical cutoff:                                                   NO
 PW_GRID|   Bounds   1             -7       7                Points:          15
 PW_GRID|   Bounds   2             -7       7                Points:          15
 PW_GRID|   Bounds   3             -7       7                Points:          15
 PW_GRID| Volume element (a.u.^3)   5.823         Volume (a.u.^3)     19651.0990
 PW_GRID| Grid span                                                    FULLSPACE
 PW_GRID|   Distribution                         Average         Max         Min
 PW_GRID|   G-Vectors                              105.5         150          75
 PW_GRID|   G-Rays                                   7.0          10           5
 PW_GRID|   Real Space Points                      105.5         225           0

 POISSON| Solver                                                        PERIODIC
 POISSON| Periodicity                                                        XYZ

 RS_GRID| Information for grid number                                          1
 RS_GRID|   Bounds   1           -120     119                Points:         240
 RS_GRID|   Bounds   2           -120     119                Points:         240
 RS_GRID|   Bounds   3           -120     119                Points:         240
 RS_GRID| Real space distribution over                                  4 groups
 RS_GRID| Real space distribution along direction                              2
 RS_GRID| Border size                                                         29
 RS_GRID| Real space distribution over                                  8 groups
 RS_GRID| Real space distribution along direction                              3
 RS_GRID| Border size                                                         29
 RS_GRID|   Distribution                         Average         Max         Min
 RS_GRID|   Planes                                 118.0         118         118
 RS_GRID|   Distribution                         Average         Max         Min
 RS_GRID|   Planes                                  88.0          88          88

 RS_GRID| Information for grid number                                          2
 RS_GRID|   Bounds   1            -60      59                Points:         120
 RS_GRID|   Bounds   2            -60      59                Points:         120
 RS_GRID|   Bounds   3            -60      59                Points:         120
 RS_GRID| Real space distribution over                                  4 groups
 RS_GRID| Real space distribution along direction                              2
 RS_GRID| Border size                                                         30
 RS_GRID| Real space distribution over                                  8 groups
 RS_GRID| Real space distribution along direction                              3
 RS_GRID| Border size                                                         30
 RS_GRID|   Distribution                         Average         Max         Min
 RS_GRID|   Planes                                  90.0          90          90
 RS_GRID|   Distribution                         Average         Max         Min
 RS_GRID|   Planes                                  75.0          75          75

 RS_GRID| Information for grid number                                          3
 RS_GRID|   Bounds   1            -30      29                Points:          60
 RS_GRID|   Bounds   2            -30      29                Points:          60
 RS_GRID|   Bounds   3            -30      29                Points:          60
 RS_GRID| Real space fully replicated
 RS_GRID| Group size                                                           1

 RS_GRID| Information for grid number                                          4
 RS_GRID|   Bounds   1            -15      14                Points:          30
 RS_GRID|   Bounds   2            -15      14                Points:          30
 RS_GRID|   Bounds   3            -15      14                Points:          30
 RS_GRID| Real space fully replicated
 RS_GRID| Group size                                                           1

 RS_GRID| Information for grid number                                          5
 RS_GRID|   Bounds   1             -7       7                Points:          15
 RS_GRID|   Bounds   2             -7       7                Points:          15
 RS_GRID|   Bounds   3             -7       7                Points:          15
 RS_GRID| Real space fully replicated
 RS_GRID| Group size                                                           1

 Spin 1

 Number of electrons:                                                       1081
 Number of occupied orbitals:                                               1081
 Number of molecular orbitals:                                              1081

 Spin 2

 Number of electrons:                                                       1080
 Number of occupied orbitals:                                               1080
 Number of molecular orbitals:                                              1080

 Number of orbital functions:                                               4680
 Number of independent orbital functions:                                   4680

 Extrapolation method: initial_guess

 *** WARNING in qs_initial_guess.F:309 :: User requested to restart the    ***
 *** wavefunction from the file named: PROJECT-RESTART.wfn. This file does ***
 *** not exist. Please check the existence of the file or change properly  ***
 *** the value of the keyword WFN_RESTART_FILE_NAME. Calculation continues ***
 *** using ATOMIC GUESS.                                                   ***


 Atomic guess: The first density matrix is obtained in terms of atomic orbitals
               and electronic configurations assigned to each atomic kind

 Guess for atomic kind: Ti

 Electronic structure
    Total number of core electrons                                         10.00
    Total number of valence electrons                                      12.00
    Total number of electrons                                              22.00
    Multiplicity                                                   not specified
    S   [  2.00  2.00] 2.00  2.00
    P   [  6.00] 6.00
    D      2.00
 

 *******************************************************************************
                  Iteration          Convergence                     Energy [au]
 *******************************************************************************
                          1         2.59099                     -56.573945749309
                          2        0.737518                     -57.461623245624
                          3        0.123244E-01                 -57.676656834797
                          4        0.338536E-02                 -57.676690535970
                          5        0.252157E-03                 -57.676697146183
                          6        0.162704E-05                 -57.676697160103
                          7        0.846593E-06                 -57.676697160104

 Energy components [Hartree]           Total Energy ::          -57.676697160104
                                        Band Energy ::          -13.440549799540
                                     Kinetic Energy ::           25.008468428382
                                   Potential Energy ::          -82.685165588485
                                      Virial (-V/T) ::            3.306286661467
                                        Core Energy ::          -97.155838374470
                                          XC Energy ::           -6.919409696495
                                     Coulomb Energy ::           46.398550910862
                       Total Pseudopotential Energy ::         -122.259340742081
                       Local Pseudopotential Energy ::         -118.928992669456
                    Nonlocal Pseudopotential Energy ::           -3.330348072625
                                        Confinement ::            0.950339392289

 Orbital energies  State     L     Occupation   Energy[a.u.]          Energy[eV]

                       1     0          2.000      -2.312566          -62.928123
                       2     0          2.000      -0.123060           -3.348633
 
                       1     1          6.000      -1.385567          -37.703193
 
                       1     2          2.000      -0.127948           -3.481643
 

 Total Electron Density at R=0:                                         0.004726

 Guess for atomic kind: O

 Electronic structure
    Total number of core electrons                                          2.00
    Total number of valence electrons                                       6.00
    Total number of electrons                                               8.00
    Multiplicity                                                   not specified
    S   [  2.00] 2.00
    P      4.00
 

 *******************************************************************************
                  Iteration          Convergence                     Energy [au]
[...]
 flops max/rank                      6.108585E+12       0.0%    100.0%      0.0%
 matmuls inhomo. stacks                         0       0.0%      0.0%      0.0%
 matmuls total                         4496076381       0.0%    100.0%      0.0%
 number of processed stacks               7028315       0.0%    100.0%      0.0%
 average stack size                                     0.0     639.7       0.0
 marketing flops                   265.871025E+12
 -------------------------------------------------------------------------------
 # multiplications                          15430
 max memory usage/rank               1.468850E+09
 # max total images/rank                        2
 # max 3D layers                                1
 # MPI messages exchanged                 6418880
 MPI messages size (bytes):
  total size                         5.413463E+12
  min size                           0.000000E+00
  max size                           5.758976E+06
  average size                     843.365750E+03
 MPI breakdown and total messages size (bytes):
             size <=      128             2883344                  1252544
       128 < size <=     8192               14784                 32004672
      8192 < size <=    32768              175460               2101264128
     32768 < size <=   131072              416044              53933703504
    131072 < size <=  4194304             2293368            1904290598688
   4194304 < size <= 16777216              635880            3453746651264
  16777216 < size                               0                        0
 -------------------------------------------------------------------------------

 *** WARNING in dbcsr_mm.F:290 :: Using a non-square number of MPI ranks ***
 *** might lead to poor performance. Used ranks: 32 Suggested: 36 64     ***

 -------------------------------------------------------------------------------
 -                                                                             -
 -                      DBCSR MESSAGE PASSING PERFORMANCE                      -
 -                                                                             -
 -------------------------------------------------------------------------------
 ROUTINE             CALLS      AVE VOLUME [Bytes]
 MP_Bcast              447                     12.
 MP_Allreduce        78919                     37.
 MP_Alltoall         65557                 634860.
 MP_ISend           477258                 386875.
 MP_IRecv           474990                 385160.
 -------------------------------------------------------------------------------

 -------------------------------------------------------------------------------
 -                                                                             -
 -                                DBM STATISTICS                               -
 -                                                                             -
 -------------------------------------------------------------------------------
    M  x    N  x    K                                          COUNT     PERCENT
 -------------------------------------------------------------------------------

 -------------------------------------------------------------------------------
 -                                                                             -
 -                                GRID STATISTICS                              -
 -                                                                             -
 -------------------------------------------------------------------------------
 LP    KERNEL             BACKEND                              COUNT     PERCENT
 5     collocate ortho    REF                               62387452      25.63%
 5     integrate ortho    REF                               61921874      25.44%
 6     collocate ortho    REF                               31743796      13.04%
 6     integrate ortho    REF                               31506902      12.94%
 4     collocate ortho    REF                               28021008      11.51%
 4     integrate ortho    REF                               27811896      11.42%
 0     collocate general  REF                                  17280       0.01%
 0     integrate general  REF                                  17280       0.01%
 2     collocate ortho    REF                                   7200       0.00%
 3     collocate ortho    REF                                   4320       0.00%
 -------------------------------------------------------------------------------

 MEMORY| Estimated peak process memory [MiB]                                1392

 -------------------------------------------------------------------------------
 ----                             MULTIGRID INFO                            ----
 -------------------------------------------------------------------------------
 count for grid        1:         755344          cutoff [a.u.]          300.00
 count for grid        2:         358245          cutoff [a.u.]           75.00
 count for grid        3:         444981          cutoff [a.u.]           18.75
 count for grid        4:         130870          cutoff [a.u.]            4.69
 count for grid        5:              0          cutoff [a.u.]            1.17
 total gridlevel count  :        1689440

 -------------------------------------------------------------------------------
 -                                                                             -
 -                         MESSAGE PASSING PERFORMANCE                         -
 -                                                                             -
 -------------------------------------------------------------------------------

 ROUTINE             CALLS      AVE VOLUME [Bytes]
 MP_Group                5
 MP_Bcast            20438                  19183.
 MP_Allreduce        61484                   6254.
 MP_Sync              1034
 MP_Alltoall          3670               10045732.
 MP_SendRecv         28860                  70710.
 MP_ISendRecv        24738                  22200.
 MP_Wait             68796
 MP_comm_split         511
 MP_ISend            40252                 359419.
 MP_IRecv            40252                 359483.
 MP_Recv               896                1198080.
 MP_Write_All            8                 758400.
 -------------------------------------------------------------------------------


 -------------------------------------------------------------------------------
 -                                                                             -
 -                           R E F E R E N C E S                               -
 -                                                                             -
 -------------------------------------------------------------------------------
 
 CP2K version 2023.1, the CP2K developers group (2023).
 CP2K is freely available from https://www.cp2k.org/ .

 Kuehne,Thomas D.; Iannuzzi,Marcella; Del Ben,Mauro;
 Rybkin,Vladimir V.; Seewald,Patrick; Stein,Frederick; Laino,Teodoro;
 Khaliullin,Rustam Z.; Schuett,Ole; Schiffmann,Florian; Golze,Dorothea;
 Wilhelm,Jan; Chulkov,Sergey; Bani-Hashemian,Mohammad Hossein;
 Weber,Valery; Borstnik,Urban; Taillefumier,Mathieu;
 Jakobovits,Alice Shoshana; Lazzaro,Alfio; Pabst,Hans; Mueller,Tiziano;
 Schade,Robert; Guidon,Manuel; Andermatt,Samuel; Holmberg,Nico;
 Schenter,Gregory K.; Hehn,Anna; Bussy,Augustin; Belleflamme,Fabian;
 Tabacchi,Gloria; Gloess,Andreas; Lass,Michael; Bethune,Iain;
 Mundy,Christopher J.; Plessl,Christian; Watkins,Matt;
 VandeVondele,Joost; Krack,Matthias; Hutter,Juerg. 
 The Journal of Chemical Physics, 152 (19), (2020). 
 CP2K: An electronic structure and molecular dynamics software package -
 Quickstep: Efficient and accurate electronic structure calculations.
 https://doi.org/10.1063/5.0007045

 Goerigk, Lars; Hansen, Andreas; Bauer, Christoph; Ehrlich, Stephan;
 Najibi, Asim; Grimme, Stefan. , 19 (48), (2017). 
 A look at the density functional theory zoo with the advanced GMTKN55 database
 for general main group thermochemistry, kinetics and noncovalent interactions.
 https://doi.org/10.1039/C7CP04913G

 Schuett, Ole; Messmer, Peter; Hutter, Juerg; VandeVondele, Joost. 
 Electronic Structure Calculations on Graphics Processing Units, John
 Wiley & Sons, Ltd, 173-190 (2016). 
 GPU-Accelerated Sparse Matrix-Matrix Multiplication for
 Linear Scaling Density Functional Theory.
 https://doi.org/10.1002/9781118670712.ch8

 Heinecke, A; Henry, G; Hutchinson, M; Pabst, H. 
 Proceedings of Intl. Supercomputing Conference, 981-991 (2016). 
 LIBXSMM: Accelerating Small Matrix Multiplications
 by Runtime Code Generation.
 https://doi.org/10.1109/SC.2016.83

 Borstnik, U; VandeVondele, J; Weber, V; Hutter, J. 
 PARALLEL COMPUTING, 40 (5-6), 47-58 (2014). 
 Sparse matrix multiplication: The distributed block-compressed sparse
 row library.
 https://doi.org/10.1016/j.parco.2014.03.012

 Hutter, J; Iannuzzi, M; Schiffmann, F; VandeVondele, J. 
 WIREs Comput Mol Sci., 4 (1), 15-25 (2014). 
 CP2K: atomistic simulations of condensed matter systems.
 https://doi.org/10.1002/wcms.1159

 Marek, A; Blum, V; Johanni, R; Havu, V; Lang, B; Auckenthaler, T;
 Heinecke, A; Bungartz, H; Lederer, H. 
 Journal of Physics: Condensed Matter, 26 (21), (2014). 
 The ELPA library: scalable parallel eigenvalue solutions for
 electronic structure
 theory and computational science.
 https://doi.org/10.1088/0953-8984/26/21/213201

 Grimme, S; Ehrlich, S; Goerigk, L. 
 JOURNAL OF COMPUTATIONAL CHEMISTRY, 32, 1456 (2011). 
 Effect of the damping function in dispersion corrected density functional theory.
 https://doi.org/10.1002/jcc.21759

 Grimme, S; Antony, J; Ehrlich, S; Krieg, H. 
 JOURNAL OF CHEMICAL PHYSICS, 132 (15), 154104 (2010). 
 A consistent and accurate ab initio parametrization of density
 functional dispersion correction (DFT-D) for the 94 elements H-Pu.
 https://doi.org/10.1063/1.3382344

 VandeVondele, J; Hutter, J. 
 JOURNAL OF CHEMICAL PHYSICS, 127 (11), 114105 (2007). 
 Gaussian basis sets for accurate calculations on molecular systems in
 gas and condensed phases.
 https://doi.org/10.1063/1.2770708

 Krack, M. 
 THEORETICAL CHEMISTRY ACCOUNTS, 114 (1-3), 145-152 (2005). 
 Pseudopotentials for H to Kr optimized for gradient-corrected
 exchange-correlation functionals.
 https://doi.org/10.1007/s00214-005-0655-y

 VandeVondele, J; Krack, M; Mohamed, F; Parrinello, M; Chassaing, T;
 Hutter, J. COMPUTER PHYSICS COMMUNICATIONS, 167 (2), 103-128 (2005). 
 QUICKSTEP: Fast and accurate density functional calculations using a
 mixed Gaussian and plane waves approach.
 https://doi.org/10.1016/j.cpc.2004.12.014

 Frigo, M; Johnson, SG. 
 PROCEEDINGS OF THE IEEE, 93 (2), 216-231 (2005). 
 The design and implementation of FFTW3.
 https://doi.org/10.1109/JPROC.2004.840301

 VandeVondele, J; Hutter, J. 
 JOURNAL OF CHEMICAL PHYSICS, 118 (10), 4365-4369 (2003). 
 An efficient orbital transformation method for electronic structure
 calculations.
 https://doi.org/10.1063/1.1543154

 Hartwigsen, C; Goedecker, S; Hutter, J. 
 PHYSICAL REVIEW B, 58 (7), 3641-3662 (1998). 
 Relativistic separable dual-space Gaussian pseudopotentials from H to Rn.
 https://doi.org/10.1103/PhysRevB.58.3641

 Dudarev, SL; Botton, GA; Savrasov, SY; Humphreys, CJ; Sutton, AP. 
 PHYSICAL REVIEW B, 57 (3), 1505-1509 (1998). 
 Electron-energy-loss spectra and the structural stability of
 nickel oxide: An LSDA+U study.
 https://doi.org/10.1103/PhysRevB.57.1505

 Lippert, G; Hutter, J; Parrinello, M. 
 MOLECULAR PHYSICS, 92 (3), 477-487 (1997). 
 A hybrid Gaussian and plane wave density functional scheme.
 https://doi.org/10.1080/002689797170220

 Dudarev, SL; Manh, DN; Sutton, AP. 
 PHILOSOPHICAL MAGAZINE B, 75 (5), 613-628 (1997). 
 Effect of Mott-Hubbard correlations on the electronic
 structure and structural stability of uranium dioxide.
 https://doi.org/10.1080/13642819708202343

 Perdew, JP; Burke, K; Ernzerhof, M. 
 PHYSICAL REVIEW LETTERS, 77 (18), 3865-3868 (1996). 
 Generalized gradient approximation made simple.
 https://doi.org/10.1103/PhysRevLett.77.3865

 Goedecker, S; Teter, M; Hutter, J. 
 PHYSICAL REVIEW B, 54 (3), 1703-1710 (1996). 
 Separable dual-space Gaussian pseudopotentials.
 https://doi.org/10.1103/PhysRevB.54.1703


 -------------------------------------------------------------------------------
 -                                                                             -
 -                                T I M I N G                                  -
 -                                                                             -
 -------------------------------------------------------------------------------
 SUBROUTINE                       CALLS  ASD         SELF TIME        TOTAL TIME
                                MAXIMUM       AVERAGE  MAXIMUM  AVERAGE  MAXIMUM
 CP2K                                 1  1.0    0.850    0.928 9391.022 9391.080
 qs_energies                          1  2.0    0.000    0.001 9380.477 9380.546
 scf_env_do_scf                       1  3.0    0.001    0.012 7057.730 7057.771
 scf_env_do_scf_inner_loop          133  4.0    0.032    0.880 6871.018 6872.287
 dbcsr_multiply_generic           15430  9.0    1.070    3.321 3864.763 4105.337
 qs_scf_new_mos                     133  5.0    0.001    0.001 3812.216 3813.532
 qs_scf_loop_do_ot                  133  6.0    0.003    0.016 3812.215 3813.530
 ot_scf_mini                        133  7.0    0.009    0.018 3686.531 3688.471
 qs_ot_get_p                        870  6.6    0.128    0.781 2286.080 2314.585
 ot_mini                            717  6.4    0.006    0.029 2294.664 2302.133
 scf_post_calculation_gpw             1  3.0    0.000    0.001 2275.957 2276.039
 qs_ks_update_qs_env                134  5.0    0.001    0.010 2183.051 2194.792
 rebuild_ks_matrix                  133  6.0    0.028    0.243 2170.155 2181.952
 qs_ks_build_kohn_sham_matrix       133  7.0    0.066    0.408 2170.127 2181.723
 multiply_cannon                  15430 10.0    1.250    2.219 1257.907 1940.497
 qs_ot_get_derivative               560  8.0    0.008    0.044 1909.012 1940.453
 mp_sum_l                         72915 10.0 1630.435 1863.697 1630.435 1863.697
 ot_eigensolver                       4  6.0    0.031    0.090 1730.757 1730.811
 qs_ot_p2m_diag                     501  8.1    0.628    1.751 1649.259 1663.290
 make_lumo_gpw                        1  4.0    0.000    0.007 1659.944 1659.955
 multiply_cannon_loop             15430 11.0    1.139    2.234  910.409 1613.523
 mp_waitall_1                   1016064 13.2  957.479 1610.767  957.479 1610.767
 cp_dbcsr_syevd                     505  9.0    0.075    0.369 1475.584 1476.979
 cp_fm_diag_elpa                    281 10.8    0.003    0.023 1368.538 1370.266
 multiply_cannon_metrocomm3      123440 12.0    0.486    0.990  572.877 1350.613
 cp_fm_diag_elpa_base               281 11.8  798.322 1187.190  802.259 1194.213
 cp_fm_redistribute_end             518 11.0  481.524 1134.863  486.119 1138.424
 qs_ot_get_derivative_diag          371  9.4    0.017    0.050 1088.149 1099.867
 plus_u                             133  8.0    0.008    0.020 1062.791 1063.435
 lowdin                             133  9.0    0.100    0.424 1062.783 1063.426
 qs_rho_update_rho_low              134  5.0    0.007    0.039  835.012  836.356
 calculate_rho_elec                 268  6.0    0.707    1.272  835.005  836.350
 sum_up_and_integrate               133  8.0    1.371    1.912  818.477  819.362
 integrate_v_rspace                 266  9.0    0.009    0.021  817.101  817.639
 dbcsr_complete_redistribute       3327 11.1   16.443   24.075  659.765  672.378
 mp_alltoall_d11v                 16509 12.2  563.050  658.870  563.050  658.870
 make_m2s                         30860 10.0    0.581    1.033  593.465  645.909
 rs_pw_transfer                    2714  9.4    0.034    0.090  546.513  632.150
 make_images                      30860 11.0    1.357    2.298  582.000  628.838
 cp_dbcsr_sm_fm_multiply            551  9.9    0.024    0.060  620.075  625.166
 density_rs2pw                      268  7.0    0.018    0.033  491.754  577.238
 grid_integrate_task_list           266 10.0  313.227  555.936  313.227  555.936
 copy_dbcsr_to_fm                  1289  9.9    0.114    0.694  526.550  551.910
 grid_collocate_task_list           268  7.0  295.283  518.868  295.283  518.868
 make_images_sizes                30860 12.0    0.044    0.092  442.259  507.517
 mp_alltoall_i44                  30860 13.0  442.216  507.486  442.216  507.486
 mp_sum_d                         18147 10.7  355.517  501.415  355.517  501.415
 mp_waitany                       40252 11.4  322.909  416.436  322.909  416.436
 multiply_cannon_metrocomm1      123440 12.0    0.231    0.427  168.310  401.905
 mp_allgather_i34                 15430 11.0  333.556  379.517  333.556  379.517
 mp_sum_b                         26274 10.2  371.068  372.114  371.068  372.114
 rs_gather_matrices                 266 10.0    1.244    2.120  261.081  354.507
 qs_ot_get_orbitals                 868  6.6    0.005    0.028  332.714  344.879
 rs_pw_transfer_RS2PW_300           278  8.9    8.239   14.655  258.624  344.693
 write_available_results              1  4.0    0.000    0.001  330.882  330.907
 write_mo_dependent_results           1  5.0    0.007    0.029  329.855  329.861
 copy_fm_to_dbcsr                  2038 10.3    0.063    0.241  314.729  327.029
 calculate_projected_dos              2  6.0    0.588    1.326  314.763  315.155
 ot_diis_step                       133  9.0    0.029    0.173  312.396  312.569
 dbcsr_dot_sd                      5178  8.8    2.195    3.693  227.083  283.095
 multiply_cannon_multrec         123440 12.0  159.637  282.170  159.884  282.553
 cp_dbcsr_sm_fm_multiply_core       551 10.9    0.016    0.125  221.691  261.954
 qs_ot_get_derivative_taylor        189  8.0    0.009    0.046  252.025  253.743
 apply_preconditioner_dbcsr         268 10.0    0.028    0.132  232.490  252.981
 apply_all                          268 11.0    0.075    0.195  232.461  252.873
 cp_dbcsr_plus_fm_fm_t_native       268 10.0    0.015    0.046  233.686  252.384
 arnoldi_extremal                   870  7.6    0.025    0.108  227.893  250.068
 arnoldi_normal_ev                  870  8.6    0.013    0.041  227.868  250.057
 mp_alltoall_i22                   5325 12.0  186.428  246.061  186.428  246.061
 potential_pw2rs                    266 10.0    0.036    0.082  242.782  245.439
 pw_to_cube                           8  5.0    5.787  175.007  234.582  238.273
 hybrid_alltoall_any              32149 13.0    2.711   14.714  156.804  226.877
 mp_alltoall_i11v                 13397 12.0  224.817  225.436  224.817  225.436
 pw_transfer                       3386  9.2    0.200    0.304  209.654  215.894
 fft_wrap_pw1pw2                   3120 10.2    0.022    0.058  208.530  214.389
 fft3d_ps                          3120 12.2   22.795   32.869  191.303  198.555
 dbcsr_desymmetrize_deep           1289 10.9    1.762    2.623  170.418  197.544
 mp_sum_dv                        36179 13.1  149.343  195.392  149.343  195.392
 -------------------------------------------------------------------------------

 The number of warnings for this run is : 2
 
 -------------------------------------------------------------------------------
  **** **** ******  **  PROGRAM ENDED AT                 2023-07-16 08:03:24.177
 ***** ** ***  *** **   PROGRAM RAN ON                                    node09
 **    ****   ******    PROGRAM RAN BY                                       ywj
 ***** **    ** ** **   PROGRAM PROCESS ID                                 46134
  **** **  *******  **  PROGRAM STOPPED IN /home/ywj/bozai/work/1-TiO2/1-Bulk/ba
                                           rrier-delocalization-localization/2-c
                                           ube/k-1.0
