 *******************************************************************************
 *                            RESTART INFORMATION                              *
 *******************************************************************************
 *                                                                             *
 *    RESTART FILE NAME: PROJECT-1.restart                                     *
 *                                                                             *
 * RESTARTED QUANTITIES:                                                       *
 *                       CELL                                                  *
 *                       COORDINATES                                           *
 *                       RANDOM NUMBER GENERATOR                               *
 *                       VELOCITIES                                            *
 *                       GEO_OPT COUNTERS                                      *
 *                       CELL_OPT COUNTERS                                     *
 *                       PARTICLE THERMOSTAT                                   *
 *                       REAL TIME PROPAGATION                                 *
 *                       PINT BEAD POSITIONS                                   *
 *                       PINT BEAD VELOCITIES                                  *
 *                       PINT NOSE THERMOSTAT                                  *
 *                       PINT GLE THERMOSTAT                                   *
 *                       HELIUM BEAD POSITIONS                                 *
 *                       HELIUM PERMUTATION STATE                              *
 *                       HELIUM FORCES ON SOLUTE                               *
 *                       HELIUM RNG STATE                                      *
 *******************************************************************************

 DBCSR| CPU Multiplication driver                                           XSMM
 DBCSR| Multrec recursion limit                                              512
 DBCSR| Multiplication stack size                                           1000
 DBCSR| Maximum elements for images                                    UNLIMITED
 DBCSR| Multiplicative factor virtual images                                   1
 DBCSR| Use multiplication densification                                       T
 DBCSR| Multiplication size stacks                                             3
 DBCSR| Use memory pool for CPU allocation                                     F
 DBCSR| Number of 3D layers                                               SINGLE
 DBCSR| Use MPI memory allocation                                              F
 DBCSR| Use RMA algorithm                                                      F
 DBCSR| Use Communication thread                                               T
 DBCSR| Communication thread load                                             87
 DBCSR| MPI: My node id                                                        0
 DBCSR| MPI: Number of nodes                                                  40
 DBCSR| OMP: Current number of threads                                         1
 DBCSR| OMP: Max number of threads                                             1
 DBCSR| Split modifier for TAS multiplication algorithm                  1.0E+00


  **** **** ******  **  PROGRAM STARTED AT               2023-05-22 15:53:39.032
 ***** ** ***  *** **   PROGRAM STARTED ON                                node10
 **    ****   ******    PROGRAM STARTED BY                                  wyin
 ***** **    ** ** **   PROGRAM PROCESS ID                                  1917
  **** **  *******  **  PROGRAM STARTED IN /home/wyin/bozai/job/1-TiO2/1-Bulk/3-
                                           Marcus/1-localization/3-Ti46-centre

 CP2K| version string:                                       CP2K version 2022.1
 CP2K| source code revision number:                                  git:2caeb6f
 CP2K| cp2kflags: omp libint fftw3 libxc elpa parallel mpi3 scalapack xsmm plume
 CP2K|            d2 spglib mkl libvori libbqb
 CP2K| is freely available from                            https://www.cp2k.org/
 CP2K| Program compiled at                          Mon Mar 13 16:18:57 CET 2023
 CP2K| Program compiled on                                               login02
 CP2K| Program compiled for                                                local
 CP2K| Data directory path                   /home/wyin/package/cp2k-2022.1/data
 CP2K| Input file name                                                 input.inp
 
 GLOBAL| Force Environment number                                              1
 GLOBAL| Basis set file name            /home/wyin/bozai/Bootstrap/BASIS_SET/BAS
 GLOBAL| Potential file name            /home/wyin/bozai/Bootstrap/BASIS_SET/GTH
 GLOBAL| MM Potential file name                                     MM_POTENTIAL
 GLOBAL| Coordinate file name                                           Bulk.xyz
 GLOBAL| Method name                                                        CP2K
 GLOBAL| Project name                                                    PROJECT
 GLOBAL| Run type                                                        GEO_OPT
 GLOBAL| FFT library                                                       FFTW3
 GLOBAL| Diagonalization library                                            ELPA
 GLOBAL| Minimum number of eigenvectors for ELPA usage                        16
 GLOBAL| Orthonormality check for eigenvectors                          DISABLED
 GLOBAL| Matrix multiplication library                                 ScaLAPACK
 GLOBAL| All-to-all communication in single precision                          F
 GLOBAL| FFTs using library dependent lengths                                  F
 GLOBAL| Grid backend                                                       AUTO
 GLOBAL| Global print level                                               MEDIUM
 GLOBAL| MPI I/O enabled                                                       T
 GLOBAL| Total number of message passing processes                            40
 GLOBAL| Number of threads for this process                                    1
 GLOBAL| This output is from process                                           0
 GLOBAL| Stack size for threads created by OpenMP (OMP_STACKSIZE)        default
 GLOBAL| CPU model name                Intel(R) Xeon(R) CPU E5-2640 v4 @ 2.40GHz
 GLOBAL| CPUID                                                              1002
 GLOBAL| Compiled for CPUID                                                 1001

 *** HINT in environment.F:869 :: The compiler target flags (x86_avx) used ***
 *** to build this binary cannot exploit all extensions of this CPU model  ***
 *** (x86_avx2). Consider compiler target flags as part of FCFLAGS and     ***
 *** CFLAGS (ARCH file).                                                   ***


 MEMORY| system memory details [Kb]
 MEMORY|                        rank 0           min           max       average
 MEMORY| MemTotal            131745360     131745360     131745444     131745402
 MEMORY| MemFree             126855844     126855844     126873120     126864482
 MEMORY| Buffers                 17848         17528         17848         17688
 MEMORY| Cached                 345360        338156        345360        341758
 MEMORY| Slab                   131624        129256        131624        130441
 MEMORY| SReclaimable            42748         41100         42748         41924
 MEMORY| MemLikelyFree       127261800     127261800     127269908     127265852


 *** Fundamental physical constants (SI units) ***

 *** Literature: B. J. Mohr and B. N. Taylor,
 ***             CODATA recommended values of the fundamental physical
 ***             constants: 2006, Web Version 5.1
 ***             http://physics.nist.gov/constants

 Speed of light in vacuum [m/s]                             2.99792458000000E+08
 Magnetic constant or permeability of vacuum [N/A**2]       1.25663706143592E-06
 Electric constant or permittivity of vacuum [F/m]          8.85418781762039E-12
 Planck constant (h) [J*s]                                  6.62606896000000E-34
 Planck constant (h-bar) [J*s]                              1.05457162825177E-34
 Elementary charge [C]                                      1.60217648700000E-19
 Electron mass [kg]                                         9.10938215000000E-31
 Electron g factor [ ]                                     -2.00231930436220E+00
 Proton mass [kg]                                           1.67262163700000E-27
 Fine-structure constant                                    7.29735253760000E-03
 Rydberg constant [1/m]                                     1.09737315685270E+07
 Avogadro constant [1/mol]                                  6.02214179000000E+23
 Boltzmann constant [J/K]                                   1.38065040000000E-23
 Atomic mass unit [kg]                                      1.66053878200000E-27
 Bohr radius [m]                                            5.29177208590000E-11

 *** Conversion factors ***

 [u] -> [a.u.]                                              1.82288848426455E+03
 [Angstrom] -> [Bohr] = [a.u.]                              1.88972613288564E+00
 [a.u.] = [Bohr] -> [Angstrom]                              5.29177208590000E-01
 [a.u.] -> [s]                                              2.41888432650478E-17
 [a.u.] -> [fs]                                             2.41888432650478E-02
 [a.u.] -> [J]                                              4.35974393937059E-18
 [a.u.] -> [N]                                              8.23872205491840E-08
 [a.u.] -> [K]                                              3.15774647902944E+05
 [a.u.] -> [kJ/mol]                                         2.62549961709828E+03
 [a.u.] -> [kcal/mol]                                       6.27509468713739E+02
 [a.u.] -> [Pa]                                             2.94210107994716E+13
 [a.u.] -> [bar]                                            2.94210107994716E+08
 [a.u.] -> [atm]                                            2.90362800883016E+08
 [a.u.] -> [eV]                                             2.72113838565563E+01
 [a.u.] -> [Hz]                                             6.57968392072181E+15
 [a.u.] -> [1/cm] (wave numbers)                            2.19474631370540E+05
 [a.u./Bohr**2] -> [1/cm]                                   5.14048714338585E+03
 

 CELL_TOP| Volume [angstrom^3]:                                      2911.992402
 CELL_TOP| Vector a [angstrom    13.911     0.000     0.000   |a| =    13.910500
 CELL_TOP| Vector b [angstrom     0.000    13.911     0.000   |b| =    13.910500
 CELL_TOP| Vector c [angstrom     0.000     0.000    15.049   |c| =    15.048900
 CELL_TOP| Angle (b,c), alpha [degree]:                                90.000000
 CELL_TOP| Angle (a,c), beta  [degree]:                                90.000000
 CELL_TOP| Angle (a,b), gamma [degree]:                                90.000000
 CELL_TOP| Numerically orthorhombic:                                         YES

 *** WARNING in atoms_input.F:123 :: Overwriting coordinates. Active    ***
 *** coordinates read from &COORD section. Active coordinates READ from ***
 *** &COORD section                                                     ***

 
 GENERATE|  Preliminary Number of Bonds generated:                             0
 GENERATE|  Achieved consistency in connectivity generation.

 CELL| Volume [angstrom^3]:                                          2911.992402
 CELL| Vector a [angstrom]:      13.911     0.000     0.000   |a| =    13.910500
 CELL| Vector b [angstrom]:       0.000    13.911     0.000   |b| =    13.910500
 CELL| Vector c [angstrom]:       0.000     0.000    15.049   |c| =    15.048900
 CELL| Angle (b,c), alpha [degree]:                                    90.000000
 CELL| Angle (a,c), beta  [degree]:                                    90.000000
 CELL| Angle (a,b), gamma [degree]:                                    90.000000
 CELL| Numerically orthorhombic:                                             YES

 CELL_REF| Volume [angstrom^3]:                                      2911.992402
 CELL_REF| Vector a [angstrom    13.911     0.000     0.000   |a| =    13.910500
 CELL_REF| Vector b [angstrom     0.000    13.911     0.000   |b| =    13.910500
 CELL_REF| Vector c [angstrom     0.000     0.000    15.049   |c| =    15.048900
 CELL_REF| Angle (b,c), alpha [degree]:                                90.000000
 CELL_REF| Angle (a,c), beta  [degree]:                                90.000000
 CELL_REF| Angle (a,b), gamma [degree]:                                90.000000
 CELL_REF| Numerically orthorhombic:                                         YES

 *******************************************************************************
 *******************************************************************************
 **                                                                           **
 **     #####                         ##              ##                      **
 **    ##   ##            ##          ##              ##                      **
 **   ##     ##                       ##            ######                    **
 **   ##     ##  ##   ##  ##   #####  ##  ##   ####   ##    #####    #####    **
 **   ##     ##  ##   ##  ##  ##      ## ##   ##      ##   ##   ##  ##   ##   **
 **   ##  ## ##  ##   ##  ##  ##      ####     ###    ##   ######   ######    **
 **    ##  ###   ##   ##  ##  ##      ## ##      ##   ##   ##       ##        **
 **     #######   #####   ##   #####  ##  ##  ####    ##    #####   ##        **
 **           ##                                                    ##        **
 **                                                                           **
 **                                                ... make the atoms dance   **
 **                                                                           **
 **            Copyright (C) by CP2K developers group (2000-2022)             **
 **                      J. Chem. Phys. 152, 194103 (2020)                    **
 **                                                                           **
 *******************************************************************************

 DFT| Spin unrestricted (spin-polarized) Kohn-Sham calculation               UKS
 DFT| Multiplicity                                                             2
 DFT| Number of spin states                                                    2
 DFT| Charge                                                                  -1
 DFT| Self-interaction correction (SIC)                                       NO
 DFT| Cutoffs: density                                              1.000000E-10
 DFT|          gradient                                             1.000000E-10
 DFT|          tau                                                  1.000000E-10
 DFT|          cutoff_smoothing_range                               0.000000E+00
 DFT| XC density smoothing                                                  NN10
 DFT| XC derivatives                                              SPLINE2_SMOOTH

 DFT+U| Method                                                            LOWDIN
 DFT+U| Check atomic kind information for details

 FUNCTIONAL| PBE:
 FUNCTIONAL| J.P.Perdew, K.Burke, M.Ernzerhof, Phys. Rev. Letter, vol. 77, n 18,
 FUNCTIONAL|  pp. 3865-3868, (1996){spin polarized}                             

 vdW POTENTIAL|                                                   Pair Potential
 vdW POTENTIAL|          DFT-D3 (Version 3.1)
 vdW POTENTIAL|          Potential Form: S. Grimme et al, JCP 132: 154104 (2010)
 vdW POTENTIAL|          Zero Damping
 vdW POTENTIAL|          Cutoff Radius [Bohr]:                             20.00
 vdW POTENTIAL|          s6 Scaling Factor:                               1.0000
 vdW POTENTIAL|          sr6 Scaling Factor:                              1.2170
 vdW POTENTIAL|          s8 Scaling Factor:                               0.7220
 vdW POTENTIAL|          Cutoff for CN calculation:                   0.1000E-05

 QS| Method:                                                                 GPW
 QS| Density plane wave grid type                        NON-SPHERICAL FULLSPACE
 QS| Number of grid levels:                                                    5
 QS| Density cutoff [a.u.]:                                                400.0
 QS| Using commensurate multigrids
 QS| Multi grid cutoff [a.u.]: 1) grid level                               400.0
 QS|                           2) grid level                               100.0
 QS|                           3) grid level                                25.0
 QS|                           4) grid level                                 6.2
 QS|                           5) grid level                                 1.6
 QS| Grid level progression factor:                                          4.0
 QS| Relative density cutoff [a.u.]:                                        20.0
 QS| Interaction thresholds: eps_pgf_orb:                                1.0E-06
 QS|                         eps_filter_matrix:                          0.0E+00
 QS|                         eps_core_charge:                            1.0E-14
 QS|                         eps_rho_gspace:                             1.0E-12
 QS|                         eps_rho_rspace:                             1.0E-12
 QS|                         eps_gvg_rspace:                             1.0E-06
 QS|                         eps_ppl:                                    1.0E-02
 QS|                         eps_ppnl:                                   1.0E-08


 ATOMIC KIND INFORMATION

  1. Atomic kind: Ti                                    Number of atoms:      90

     Orbital Basis Set                                        DZVP-MOLOPT-SR-GTH

       Number of orbital shell sets:                                           1
       Number of orbital shells:                                               8
       Number of primitive Cartesian functions:                                6
       Number of Cartesian basis functions:                                   31
       Number of spherical basis functions:                                   26
       Norm type:                                                              2

       Normalised Cartesian orbitals:

                        Set   Shell   Orbital            Exponent    Coefficient

                          1       1    2s                7.884570       0.015554
                                                         3.894698       0.963603
                                                         1.513589      -0.631435
                                                         0.596768      -0.343022
                                                         0.222222      -0.006534
                                                         0.077078       0.007652

                          1       2    3s                7.884570      -0.009340
                                                         3.894698       0.212624
                                                         1.513589      -0.258368
                                                         0.596768      -0.226206
                                                         0.222222       0.039438
                                                         0.077078       0.107179

                          1       3    4s                7.884570       0.276563
                                                         3.894698       0.105452
                                                         1.513589       0.085149
                                                         0.596768       0.882541
                                                         0.222222      -0.696223
                                                         0.077078       0.156638

                          1       4    3px               7.884570      -2.034794
                                                         3.894698       0.782008
                                                         1.513589       1.253903
                                                         0.596768       0.347823
                                                         0.222222       0.016778
                                                         0.077078      -0.000433
                          1       4    3py               7.884570      -2.034794
                                                         3.894698       0.782008
                                                         1.513589       1.253903
                                                         0.596768       0.347823
                                                         0.222222       0.016778
                                                         0.077078      -0.000433
                          1       4    3pz               7.884570      -2.034794
                                                         3.894698       0.782008
                                                         1.513589       1.253903
                                                         0.596768       0.347823
                                                         0.222222       0.016778
                                                         0.077078      -0.000433

                          1       5    4px               7.884570       0.376572
                                                         3.894698      -0.182875
                                                         1.513589      -0.474776
                                                         0.596768      -0.081757
                                                         0.222222       0.064432
                                                         0.077078       0.047279
                          1       5    4py               7.884570       0.376572
                                                         3.894698      -0.182875
                                                         1.513589      -0.474776
                                                         0.596768      -0.081757
                                                         0.222222       0.064432
                                                         0.077078       0.047279
                          1       5    4pz               7.884570       0.376572
                                                         3.894698      -0.182875
                                                         1.513589      -0.474776
                                                         0.596768      -0.081757
                                                         0.222222       0.064432
                                                         0.077078       0.047279

                          1       6    4dx2              7.884570       3.047350
                                                         3.894698       3.289529
                                                         1.513589       1.060616
                                                         0.596768       0.249930
                                                         0.222222       0.038806
                                                         0.077078       0.002319
                          1       6    4dxy              7.884570       5.278165
                                                         3.894698       5.697631
                                                         1.513589       1.837041
                                                         0.596768       0.432892
                                                         0.222222       0.067214
                                                         0.077078       0.004017
                          1       6    4dxz              7.884570       5.278165
                                                         3.894698       5.697631
                                                         1.513589       1.837041
                                                         0.596768       0.432892
                                                         0.222222       0.067214
                                                         0.077078       0.004017
                          1       6    4dy2              7.884570       3.047350
                                                         3.894698       3.289529
                                                         1.513589       1.060616
                                                         0.596768       0.249930
                                                         0.222222       0.038806
                                                         0.077078       0.002319
                          1       6    4dyz              7.884570       5.278165
                                                         3.894698       5.697631
                                                         1.513589       1.837041
                                                         0.596768       0.432892
                                                         0.222222       0.067214
                                                         0.077078       0.004017
                          1       6    4dz2              7.884570       3.047350
                                                         3.894698       3.289529
                                                         1.513589       1.060616
                                                         0.596768       0.249930
                                                         0.222222       0.038806
                                                         0.077078       0.002319

                          1       7    5dx2              7.884570      -2.119015
                                                         3.894698      -1.237751
                                                         1.513589      -0.746777
                                                         0.596768      -0.071514
                                                         0.222222       0.004086
                                                         0.077078       0.017595
                          1       7    5dxy              7.884570      -3.670241
                                                         3.894698      -2.143848
                                                         1.513589      -1.293455
                                                         0.596768      -0.123865
                                                         0.222222       0.007077
                                                         0.077078       0.030475
                          1       7    5dxz              7.884570      -3.670241
                                                         3.894698      -2.143848
                                                         1.513589      -1.293455
                                                         0.596768      -0.123865
                                                         0.222222       0.007077
                                                         0.077078       0.030475
                          1       7    5dy2              7.884570      -2.119015
                                                         3.894698      -1.237751
                                                         1.513589      -0.746777
                                                         0.596768      -0.071514
                                                         0.222222       0.004086
                                                         0.077078       0.017595
                          1       7    5dyz              7.884570      -3.670241
                                                         3.894698      -2.143848
                                                         1.513589      -1.293455
                                                         0.596768      -0.123865
                                                         0.222222       0.007077
                                                         0.077078       0.030475
                          1       7    5dz2              7.884570      -2.119015
                                                         3.894698      -1.237751
                                                         1.513589      -0.746777
                                                         0.596768      -0.071514
                                                         0.222222       0.004086
                                                         0.077078       0.017595

                          1       8    5fx3              7.884570      -0.342058
                                                         3.894698       0.375798
                                                         1.513589      -0.706469
                                                         0.596768      -0.229994
                                                         0.222222      -0.012723
                                                         0.077078       0.003932
                          1       8    5fx2y             7.884570      -0.764866
                                                         3.894698       0.840310
                                                         1.513589      -1.579712
                                                         0.596768      -0.514282
                                                         0.222222      -0.028450
                                                         0.077078       0.008792
                          1       8    5fx2z             7.884570      -0.764866
                                                         3.894698       0.840310
                                                         1.513589      -1.579712
                                                         0.596768      -0.514282
                                                         0.222222      -0.028450
                                                         0.077078       0.008792
                          1       8    5fxy2             7.884570      -0.764866
                                                         3.894698       0.840310
                                                         1.513589      -1.579712
                                                         0.596768      -0.514282
                                                         0.222222      -0.028450
                                                         0.077078       0.008792
                          1       8    5fxyz             7.884570      -1.324787
                                                         3.894698       1.455460
                                                         1.513589      -2.736142
                                                         0.596768      -0.890763
                                                         0.222222      -0.049276
                                                         0.077078       0.015229
                          1       8    5fxz2             7.884570      -0.764866
                                                         3.894698       0.840310
                                                         1.513589      -1.579712
                                                         0.596768      -0.514282
                                                         0.222222      -0.028450
                                                         0.077078       0.008792
                          1       8    5fy3              7.884570      -0.342058
                                                         3.894698       0.375798
                                                         1.513589      -0.706469
                                                         0.596768      -0.229994
                                                         0.222222      -0.012723
                                                         0.077078       0.003932
                          1       8    5fy2z             7.884570      -0.764866
                                                         3.894698       0.840310
                                                         1.513589      -1.579712
                                                         0.596768      -0.514282
                                                         0.222222      -0.028450
                                                         0.077078       0.008792
                          1       8    5fyz2             7.884570      -0.764866
                                                         3.894698       0.840310
                                                         1.513589      -1.579712
                                                         0.596768      -0.514282
                                                         0.222222      -0.028450
                                                         0.077078       0.008792
                          1       8    5fz3              7.884570      -0.342058
                                                         3.894698       0.375798
                                                         1.513589      -0.706469
                                                         0.596768      -0.229994
                                                         0.222222      -0.012723
                                                         0.077078       0.003932

       Atomic covalent radius [Angstrom]:                                  1.320

       Atomic van der Waals radius [Angstrom]:                             1.760

     GTH Potential information for                                   GTH-PBE-q12

       Description:                       Goedecker-Teter-Hutter pseudopotential
                                           Goedecker et al., PRB 54, 1703 (1996)
                                          Hartwigsen et al., PRB 58, 3641 (1998)
                                                      Krack, TCA 114, 145 (2005)

       Gaussian exponent of the core charge distribution:               3.462604
       Electronic configuration (s p d ...):                           4   6   2

       Parameters of the local part of the GTH pseudopotential:

                          rloc        C1          C2          C3          C4
                        0.380000    8.711442   -0.700287

       Parameters of the non-local part of the GTH pseudopotential:

                   l      r(l)      h(i,j,l)

                   0    0.337771    2.575264    3.692971
                                    3.692971   -4.767605
                   1    0.242531   -4.630541    8.870875
                                    8.870875  -10.496161
                   2    0.243317   -9.406653

     A DFT+U correction is applied to atoms of this atomic kind:
       Angular quantum momentum number L:                                      2
       U(eff) = (U - J) value in [eV]:                                     4.200

  2. Atomic kind: O                                     Number of atoms:     180

     Orbital Basis Set                                        DZVP-MOLOPT-SR-GTH

       Number of orbital shell sets:                                           1
       Number of orbital shells:                                               5
       Number of primitive Cartesian functions:                                5
       Number of Cartesian basis functions:                                   14
       Number of spherical basis functions:                                   13
       Norm type:                                                              2

       Normalised Cartesian orbitals:

                        Set   Shell   Orbital            Exponent    Coefficient

                          1       1    2s               10.389228       0.396646
                                                         3.849621       0.208811
                                                         1.388401      -0.301641
                                                         0.496955      -0.274061
                                                         0.162492      -0.033677

                          1       2    3s               10.389228       0.303673
                                                         3.849621       0.240943
                                                         1.388401      -0.313066
                                                         0.496955      -0.043055
                                                         0.162492       0.213991

                          1       3    3px              10.389228      -1.530415
                                                         3.849621      -1.371928
                                                         1.388401      -0.761951
                                                         0.496955      -0.253695
                                                         0.162492      -0.035541
                          1       3    3py              10.389228      -1.530415
                                                         3.849621      -1.371928
                                                         1.388401      -0.761951
                                                         0.496955      -0.253695
                                                         0.162492      -0.035541
                          1       3    3pz              10.389228      -1.530415
                                                         3.849621      -1.371928
                                                         1.388401      -0.761951
                                                         0.496955      -0.253695
                                                         0.162492      -0.035541

                          1       4    4px              10.389228      -0.565392
                                                         3.849621      -0.038231
                                                         1.388401      -0.382373
                                                         0.496955       0.179070
                                                         0.162492       0.122714
                          1       4    4py              10.389228      -0.565392
                                                         3.849621      -0.038231
                                                         1.388401      -0.382373
                                                         0.496955       0.179070
                                                         0.162492       0.122714
                          1       4    4pz              10.389228      -0.565392
                                                         3.849621      -0.038231
                                                         1.388401      -0.382373
                                                         0.496955       0.179070
                                                         0.162492       0.122714

                          1       5    4dx2             10.389228       1.867377
                                                         3.849621       0.670994
                                                         1.388401       1.353441
                                                         0.496955       0.273538
                                                         0.162492       0.006620
                          1       5    4dxy             10.389228       3.234392
                                                         3.849621       1.162195
                                                         1.388401       2.344229
                                                         0.496955       0.473781
                                                         0.162492       0.011466
                          1       5    4dxz             10.389228       3.234392
                                                         3.849621       1.162195
                                                         1.388401       2.344229
                                                         0.496955       0.473781
                                                         0.162492       0.011466
                          1       5    4dy2             10.389228       1.867377
                                                         3.849621       0.670994
                                                         1.388401       1.353441
                                                         0.496955       0.273538
                                                         0.162492       0.006620
                          1       5    4dyz             10.389228       3.234392
                                                         3.849621       1.162195
                                                         1.388401       2.344229
                                                         0.496955       0.473781
                                                         0.162492       0.011466
                          1       5    4dz2             10.389228       1.867377
                                                         3.849621       0.670994
                                                         1.388401       1.353441
                                                         0.496955       0.273538
                                                         0.162492       0.006620

       Atomic covalent radius [Angstrom]:                                  0.730

       Atomic van der Waals radius [Angstrom]:                             1.520

     GTH Potential information for                                    GTH-PBE-q6

       Description:                       Goedecker-Teter-Hutter pseudopotential
                                           Goedecker et al., PRB 54, 1703 (1996)
                                          Hartwigsen et al., PRB 58, 3641 (1998)
                                                      Krack, TCA 114, 145 (2005)

       Gaussian exponent of the core charge distribution:               8.360253
       Electronic configuration (s p d ...):                               2   4

       Parameters of the local part of the GTH pseudopotential:

                          rloc        C1          C2          C3          C4
                        0.244554  -16.667215    2.487311

       Parameters of the non-local part of the GTH pseudopotential:

                   l      r(l)      h(i,j,l)

                   0    0.220956   18.337458
                   1    0.211332


 MOLECULE KIND INFORMATION


 All atoms are their own molecule, skipping detailed information


 TOTAL NUMBERS AND MAXIMUM NUMBERS

  Total number of            - Atomic kinds:                                   2
                             - Atoms:                                        270
                             - Shell sets:                                   270
                             - Shells:                                      1620
                             - Primitive Cartesian functions:               1440
                             - Cartesian basis functions:                   5310
                             - Spherical basis functions:                   4680

  Maximum angular momentum of- Orbital basis functions:                        3
                             - Local part of the GTH pseudopotential:          2
                             - Non-local part of the GTH pseudopotential:      3


 MODULE QUICKSTEP:  ATOMIC COORDINATES IN angstrom

 Atom  Kind  Element       X           Y           Z          Z(eff)       Mass
    1   1 Ti  22      -0.002355   -0.000990    0.000202      12.0000     47.8670
    2   1 Ti  22       2.317462    2.318467    1.506312      12.0000     47.8670
    3   1 Ti  22       4.631731    0.000896    0.000110      12.0000     47.8670
    4   1 Ti  22       6.953026    2.316831    1.504041      12.0000     47.8670
    5   1 Ti  22       9.276418   -0.001425    0.000118      12.0000     47.8670
    6   1 Ti  22      11.591178    2.317713    1.505032      12.0000     47.8670
    7   1 Ti  22      -0.000430    4.632655    0.000201      12.0000     47.8670
    8   1 Ti  22       2.315921    6.953962    1.504037      12.0000     47.8670
    9   1 Ti  22       4.642370    4.643385    0.000128      12.0000     47.8670
   10   1 Ti  22       6.953161    6.954803    1.516448      12.0000     47.8670
   11   1 Ti  22       9.273232    4.634869    0.000633      12.0000     47.8670
   12   1 Ti  22      11.591840    6.955809    1.503881      12.0000     47.8670
   13   1 Ti  22      -0.002540    9.277198    0.000197      12.0000     47.8670
   14   1 Ti  22       2.316753   11.592185    1.504948      12.0000     47.8670
   15   1 Ti  22       4.633984    9.274231   -0.000010      12.0000     47.8670
   16   1 Ti  22       6.954854   11.592839    1.503833      12.0000     47.8670
   17   1 Ti  22       9.264443    9.265455    0.000158      12.0000     47.8670
   18   1 Ti  22      11.589663   11.590625    1.506543      12.0000     47.8670
   19   1 Ti  22      -0.001219   -0.000468    3.009570      12.0000     47.8670
   20   1 Ti  22       2.318384    2.319133    4.520055      12.0000     47.8670
   21   1 Ti  22       4.639171   -0.002991    3.010239      12.0000     47.8670
   22   1 Ti  22       6.946584    2.323190    4.513346      12.0000     47.8670
   23   1 Ti  22       9.268941    0.002333    3.010298      12.0000     47.8670
   24   1 Ti  22      11.590912    2.318293    4.512714      12.0000     47.8670
   25   1 Ti  22      -0.003740    4.640019    3.010341      12.0000     47.8670
   26   1 Ti  22       2.322489    6.947384    4.513360      12.0000     47.8670
   27   1 Ti  22       4.638906    4.639707    3.005971      12.0000     47.8670
   28   1 Ti  22       6.954280    6.955323    4.540901      12.0000     47.8670
   29   1 Ti  22       9.271818    4.637261    3.011364      12.0000     47.8670
   30   1 Ti  22      11.586099    6.962751    4.513249      12.0000     47.8670
   31   1 Ti  22       0.001548    9.269871    3.010344      12.0000     47.8670
   32   1 Ti  22       2.317321   11.591890    4.512753      12.0000     47.8670
   33   1 Ti  22       4.636058    9.273122    3.011130      12.0000     47.8670
   34   1 Ti  22       6.961973   11.586910    4.513279      12.0000     47.8670
   35   1 Ti  22       9.268913    9.269777    3.006007      12.0000     47.8670
   36   1 Ti  22      11.590259   11.591010    4.520121      12.0000     47.8670
   37   1 Ti  22      -0.001096   -0.000032    6.018025      12.0000     47.8670
   38   1 Ti  22       2.325569    2.326414    7.524559      12.0000     47.8670
   39   1 Ti  22       4.633989   -0.002004    6.017964      12.0000     47.8670
   40   1 Ti  22       6.953344    2.315548    7.524545      12.0000     47.8670
   41   1 Ti  22       9.274546    0.001711    6.018007      12.0000     47.8670
   42   1 Ti  22      11.595057    2.314375    7.524544      12.0000     47.8670
   43   1 Ti  22      -0.002817    4.634897    6.018027      12.0000     47.8670
   44   1 Ti  22       2.314757    6.954145    7.524617      12.0000     47.8670
   45   1 Ti  22       4.654529    4.655308    6.017182      12.0000     47.8670
   46   1 Ti  22       6.953598    6.954865    7.524705      12.0000     47.8670
   47   1 Ti  22       9.274033    4.635525    6.022224      12.0000     47.8670
   48   1 Ti  22      11.594091    6.956144    7.524591      12.0000     47.8670
   49   1 Ti  22       0.000960    9.275337    6.018056      12.0000     47.8670
   50   1 Ti  22       2.313419   11.595969    7.524624      12.0000     47.8670
   51   1 Ti  22       4.634677    9.274827    6.022007      12.0000     47.8670
   52   1 Ti  22       6.955125   11.594805    7.524614      12.0000     47.8670
   53   1 Ti  22       9.254057    9.254853    6.017298      12.0000     47.8670
   54   1 Ti  22      11.582850   11.583632    7.524574      12.0000     47.8670
   55   1 Ti  22      -0.000964   -0.000097    9.031299      12.0000     47.8670
   56   1 Ti  22       2.318401    2.319166   10.529086      12.0000     47.8670
   57   1 Ti  22       4.633977   -0.002014    9.031178      12.0000     47.8670
   58   1 Ti  22       6.946540    2.323221   10.535739      12.0000     47.8670
   59   1 Ti  22       9.274480    0.001732    9.031142      12.0000     47.8670
   60   1 Ti  22      11.590979    2.318155   10.536373      12.0000     47.8670
   61   1 Ti  22      -0.002849    4.634865    9.031231      12.0000     47.8670
   62   1 Ti  22       2.322436    6.947417   10.535834      12.0000     47.8670
   63   1 Ti  22       4.654528    4.655326    9.031967      12.0000     47.8670
   64   1 Ti  22       6.954430    6.955271   10.508388      12.0000     47.8670
   65   1 Ti  22       9.273922    4.635628    9.027348      12.0000     47.8670
   66   1 Ti  22      11.586114    6.962791   10.535884      12.0000     47.8670
   67   1 Ti  22       0.000954    9.275440    9.031218      12.0000     47.8670
   68   1 Ti  22       2.317440   11.591816   10.536549      12.0000     47.8670
   69   1 Ti  22       4.634532    9.275001    9.027289      12.0000     47.8670
   70   1 Ti  22       6.961944   11.586918   10.535965      12.0000     47.8670
   71   1 Ti  22       9.254051    9.254898    9.031953      12.0000     47.8670
   72   1 Ti  22      11.590224   11.591084   10.529012      12.0000     47.8670
   73   1 Ti  22      -0.001164   -0.000426   12.039773      12.0000     47.8670
   74   1 Ti  22       2.317491    2.318570   13.542791      12.0000     47.8670
   75   1 Ti  22       4.639203   -0.002925   12.038915      12.0000     47.8670
   76   1 Ti  22       6.953062    2.316928   13.545054      12.0000     47.8670
   77   1 Ti  22       9.268947    0.002365   12.038868      12.0000     47.8670
   78   1 Ti  22      11.591138    2.317813   13.544096      12.0000     47.8670
   79   1 Ti  22      -0.003780    4.640002   12.038922      12.0000     47.8670
   80   1 Ti  22       2.315850    6.953937   13.545164      12.0000     47.8670
   81   1 Ti  22       4.638952    4.639831   12.043168      12.0000     47.8670
   82   1 Ti  22       6.953704    6.954020   13.532914      12.0000     47.8670
   83   1 Ti  22       9.272138    4.636996   12.038234      12.0000     47.8670
   84   1 Ti  22      11.591827    6.955767   13.545274      12.0000     47.8670
   85   1 Ti  22       0.001529    9.269866   12.038927      12.0000     47.8670
   86   1 Ti  22       2.316772   11.592177   13.544289      12.0000     47.8670
   87   1 Ti  22       4.636350    9.272729   12.038169      12.0000     47.8670
   88   1 Ti  22       6.954855   11.592829   13.545348      12.0000     47.8670
   89   1 Ti  22       9.268891    9.269735   12.043236      12.0000     47.8670
   90   1 Ti  22      11.589689   11.590624   13.542544      12.0000     47.8670
   91   2 O    8       1.414100    1.415110    0.000130       6.0000     15.9994
   92   2 O    8       3.213034    3.213991    0.000105       6.0000     15.9994
   93   2 O    8       0.895701    3.737611    1.504622       6.0000     15.9994
   94   2 O    8       3.736699    0.896632    1.504589       6.0000     15.9994
   95   2 O    8       6.056432    1.412779    0.000123       6.0000     15.9994
   96   2 O    8       7.853677    3.216083    0.000139       6.0000     15.9994
   97   2 O    8       5.531580    3.728223    1.501197       6.0000     15.9994
   98   2 O    8       8.374715    0.902709    1.504335       6.0000     15.9994
   99   2 O    8      10.692160    1.417475    0.000124       6.0000     15.9994
  100   2 O    8      12.491499    3.216834    0.000121       6.0000     15.9994
  101   2 O    8      10.175856    3.733047    1.503904       6.0000     15.9994
  102   2 O    8      13.008313    0.900479    1.504607       6.0000     15.9994
  103   2 O    8       1.411907    6.057381    0.000109       6.0000     15.9994
  104   2 O    8       3.215212    7.854673    0.000120       6.0000     15.9994
  105   2 O    8       0.901829    8.375627    1.504359       6.0000     15.9994
  106   2 O    8       3.727359    5.532487    1.501175       6.0000     15.9994
  107   2 O    8       6.050117    6.051097    0.000142       6.0000     15.9994
  108   2 O    8       7.857690    7.858664    0.000093       6.0000     15.9994
  109   2 O    8       5.530259    8.378557    1.503042       6.0000     15.9994
  110   2 O    8       8.377551    5.531192    1.503100       6.0000     15.9994
  111   2 O    8      10.692768    6.055237    0.000132       6.0000     15.9994
  112   2 O    8      12.496164    7.852542    0.000122       6.0000     15.9994
  113   2 O    8      10.180666    8.377334    1.501211       6.0000     15.9994
  114   2 O    8      13.006263    5.534273    1.504333       6.0000     15.9994
  115   2 O    8       1.416542   10.693122    0.000107       6.0000     15.9994
  116   2 O    8       3.215834   12.492459    0.000109       6.0000     15.9994
  117   2 O    8       0.899458   13.009329    1.504621       6.0000     15.9994
  118   2 O    8       3.732109   10.176869    1.503946       6.0000     15.9994
  119   2 O    8       6.054336   10.693762    0.000109       6.0000     15.9994
  120   2 O    8       7.851629   12.497063    0.000117       6.0000     15.9994
  121   2 O    8       5.533346   13.007163    1.504373       6.0000     15.9994
  122   2 O    8       8.376414   10.181562    1.501200       6.0000     15.9994
  123   2 O    8      10.694936   10.695880    0.000118       6.0000     15.9994
  124   2 O    8      12.493843   12.494848    0.000109       6.0000     15.9994
  125   2 O    8      10.171352   13.013216    1.504617       6.0000     15.9994
  126   2 O    8      13.012313   10.172242    1.504567       6.0000     15.9994
  127   2 O    8       1.414011    1.414950    3.008825       6.0000     15.9994
  128   2 O    8       3.211421    3.212341    3.004541       6.0000     15.9994
  129   2 O    8       0.896541    3.738639    4.513889       6.0000     15.9994
  130   2 O    8       3.737697    0.897466    4.513909       6.0000     15.9994
  131   2 O    8       6.057649    1.410691    3.006421       6.0000     15.9994
  132   2 O    8       7.852940    3.215835    3.008949       6.0000     15.9994
  133   2 O    8       5.523611    3.716149    4.499602       6.0000     15.9994
  134   2 O    8       8.372254    0.900068    4.515328       6.0000     15.9994
  135   2 O    8      10.691395    1.418032    3.009747       6.0000     15.9994
  136   2 O    8      12.491030    3.217633    3.009712       6.0000     15.9994
  137   2 O    8      10.177068    3.732055    4.513550       6.0000     15.9994
  138   2 O    8      13.008593    0.900476    4.513479       6.0000     15.9994
  139   2 O    8       1.409823    6.058576    3.006382       6.0000     15.9994
  140   2 O    8       3.214934    7.853904    3.008945       6.0000     15.9994
  141   2 O    8       0.899178    8.373191    4.515321       6.0000     15.9994
  142   2 O    8       3.715220    5.524441    4.499591       6.0000     15.9994
  143   2 O    8       6.048710    6.049739    2.985879       6.0000     15.9994
  144   2 O    8       7.859277    7.860296    2.985881       6.0000     15.9994
  145   2 O    8       5.528026    8.381142    4.507779       6.0000     15.9994
  146   2 O    8       8.380175    5.528977    4.507765       6.0000     15.9994
  147   2 O    8      10.693144    6.056110    3.008983       6.0000     15.9994
  148   2 O    8      12.498377    7.851351    3.006360       6.0000     15.9994
  149   2 O    8      10.193184    8.385768    4.499557       6.0000     15.9994
  150   2 O    8      13.009044    5.536845    4.515332       6.0000     15.9994
  151   2 O    8       1.417039   10.692365    3.009760       6.0000     15.9994
  152   2 O    8       3.216639   12.492023    3.009726       6.0000     15.9994
  153   2 O    8       0.899523   13.009542    4.513449       6.0000     15.9994
  154   2 O    8       3.731107   10.178024    4.513522       6.0000     15.9994
  155   2 O    8       6.055159   10.694085    3.008973       6.0000     15.9994
  156   2 O    8       7.850445   12.499292    3.006369       6.0000     15.9994
  157   2 O    8       5.535896   13.009931    4.515322       6.0000     15.9994
  158   2 O    8       8.384908   10.194103    4.499553       6.0000     15.9994
  159   2 O    8      10.696703   10.697624    3.004483       6.0000     15.9994
  160   2 O    8      12.494026   12.494961    3.008848       6.0000     15.9994
  161   2 O    8      10.170439   13.012554    4.513917       6.0000     15.9994
  162   2 O    8      13.011638   10.171376    4.513916       6.0000     15.9994
  163   2 O    8       1.412882    1.413805    6.017027       6.0000     15.9994
  164   2 O    8       3.208006    3.208897    6.018470       6.0000     15.9994
  165   2 O    8       0.895746    3.737706    7.524557       6.0000     15.9994
  166   2 O    8       3.736800    0.896638    7.524557       6.0000     15.9994
  167   2 O    8       6.054053    1.417124    6.022196       6.0000     15.9994
  168   2 O    8       7.851455    3.218323    6.015955       6.0000     15.9994
  169   2 O    8       5.538992    3.741493    7.524566       6.0000     15.9994
  170   2 O    8       8.373310    0.903864    7.524564       6.0000     15.9994
  171   2 O    8      10.692283    1.416778    6.019298       6.0000     15.9994
  172   2 O    8      12.492405    3.216868    6.019283       6.0000     15.9994
  173   2 O    8      10.179246    3.730043    7.524561       6.0000     15.9994
  174   2 O    8      13.008993    0.900187    7.524555       6.0000     15.9994
  175   2 O    8       1.416246    6.054975    6.022200       6.0000     15.9994
  176   2 O    8       3.217439    7.852367    6.015913       6.0000     15.9994
  177   2 O    8       0.903010    8.374240    7.524553       6.0000     15.9994
  178   2 O    8       3.740634    5.539900    7.524568       6.0000     15.9994
  179   2 O    8       6.015649    6.016541    5.922002       6.0000     15.9994
  180   2 O    8       7.892632    7.893515    5.922203       6.0000     15.9994
  181   2 O    8       5.520106    8.388903    7.524579       6.0000     15.9994
  182   2 O    8       8.388042    5.520998    7.524617       6.0000     15.9994
  183   2 O    8      10.690845    6.057808    6.015987       6.0000     15.9994
  184   2 O    8      12.492126    7.855105    6.022170       6.0000     15.9994
  185   2 O    8      10.167833    8.370331    7.524570       6.0000     15.9994
  186   2 O    8      13.005379    5.535898    7.524560       6.0000     15.9994
  187   2 O    8       1.415862   10.693233    6.019293       6.0000     15.9994
  188   2 O    8       3.215919   12.493339    6.019261       6.0000     15.9994
  189   2 O    8       0.899270   13.009910    7.524557       6.0000     15.9994
  190   2 O    8       3.729165   10.180112    7.524575       6.0000     15.9994
  191   2 O    8       6.056851   10.691712    6.015942       6.0000     15.9994
  192   2 O    8       7.854138   12.492989    6.022186       6.0000     15.9994
  193   2 O    8       5.534929   13.006218    7.524561       6.0000     15.9994
  194   2 O    8       8.369390   10.168672    7.524573       6.0000     15.9994
  195   2 O    8      10.700334   10.701222    6.018530       6.0000     15.9994
  196   2 O    8      12.495404   12.496321    6.016982       6.0000     15.9994
  197   2 O    8      10.171471   13.013454    7.524555       6.0000     15.9994
  198   2 O    8      13.012573   10.172379    7.524562       6.0000     15.9994
  199   2 O    8       1.412884    1.413793    9.032086       6.0000     15.9994
  200   2 O    8       3.208010    3.208897    9.030653       6.0000     15.9994
  201   2 O    8       0.896547    3.738633   10.535226       6.0000     15.9994
  202   2 O    8       3.737703    0.897467   10.535221       6.0000     15.9994
  203   2 O    8       6.054053    1.417122    9.026945       6.0000     15.9994
  204   2 O    8       7.851460    3.218309    9.033203       6.0000     15.9994
  205   2 O    8       5.523617    3.716130   10.549535       6.0000     15.9994
  206   2 O    8       8.372259    0.900064   10.533797       6.0000     15.9994
  207   2 O    8      10.692289    1.416777    9.029827       6.0000     15.9994
  208   2 O    8      12.492411    3.216863    9.029838       6.0000     15.9994
  209   2 O    8      10.177089    3.732032   10.535644       6.0000     15.9994
  210   2 O    8      13.008603    0.900469   10.535641       6.0000     15.9994
  211   2 O    8       1.416244    6.054979    9.026923       6.0000     15.9994
  212   2 O    8       3.217427    7.852365    9.033215       6.0000     15.9994
  213   2 O    8       0.899179    8.373187   10.533809       6.0000     15.9994
  214   2 O    8       3.715226    5.524440   10.549559       6.0000     15.9994
  215   2 O    8       6.015665    6.016515    9.127211       6.0000     15.9994
  216   2 O    8       7.892667    7.893517    9.126982       6.0000     15.9994
  217   2 O    8       5.528060    8.381111   10.541375       6.0000     15.9994
  218   2 O    8       8.380225    5.528934   10.541402       6.0000     15.9994
  219   2 O    8      10.690863    6.057799    9.033176       6.0000     15.9994
  220   2 O    8      12.492123    7.855106    9.026989       6.0000     15.9994
  221   2 O    8      10.193186    8.385749   10.549584       6.0000     15.9994
  222   2 O    8      13.009044    5.536832   10.533800       6.0000     15.9994
  223   2 O    8       1.415862   10.693227    9.029816       6.0000     15.9994
  224   2 O    8       3.215927   12.493340    9.029849       6.0000     15.9994
  225   2 O    8       0.899537   13.009534   10.535672       6.0000     15.9994
  226   2 O    8       3.731119   10.178007   10.535570       6.0000     15.9994
  227   2 O    8       6.056844   10.691717    9.033189       6.0000     15.9994
  228   2 O    8       7.854144   12.492989    9.026943       6.0000     15.9994
  229   2 O    8       5.535903   13.009931   10.533803       6.0000     15.9994
  230   2 O    8       8.384901   10.194085   10.549590       6.0000     15.9994
  231   2 O    8      10.700333   10.701226    9.030597       6.0000     15.9994
  232   2 O    8      12.495401   12.496313    9.032139       6.0000     15.9994
  233   2 O    8      10.170445   13.012551   10.535206       6.0000     15.9994
  234   2 O    8      13.011653   10.171378   10.535207       6.0000     15.9994
  235   2 O    8       1.414010    1.414944   12.040295       6.0000     15.9994
  236   2 O    8       3.211403    3.212318   12.044593       6.0000     15.9994
  237   2 O    8       0.895705    3.737605   13.544505       6.0000     15.9994
  238   2 O    8       3.736703    0.896625   13.544532       6.0000     15.9994
  239   2 O    8       6.057654    1.410694   12.042733       6.0000     15.9994
  240   2 O    8       7.852965    3.215817   12.040226       6.0000     15.9994
  241   2 O    8       5.531596    3.728223   13.547953       6.0000     15.9994
  242   2 O    8       8.374730    0.902712   13.544797       6.0000     15.9994
  243   2 O    8      10.691413    1.418010   12.039373       6.0000     15.9994
  244   2 O    8      12.491052    3.217615   12.039419       6.0000     15.9994
  245   2 O    8      10.175888    3.733028   13.545244       6.0000     15.9994
  246   2 O    8      13.008335    0.900473   13.544521       6.0000     15.9994
  247   2 O    8       1.409813    6.058570   12.042755       6.0000     15.9994
  248   2 O    8       3.214936    7.853881   12.040175       6.0000     15.9994
  249   2 O    8       0.901836    8.375620   13.544763       6.0000     15.9994
  250   2 O    8       3.727366    5.532482   13.547950       6.0000     15.9994
  251   2 O    8       6.048730    6.049629   12.063240       6.0000     15.9994
  252   2 O    8       7.859298    7.860183   12.063299       6.0000     15.9994
  253   2 O    8       5.530207    8.378529   13.546086       6.0000     15.9994
  254   2 O    8       8.377505    5.531164   13.546096       6.0000     15.9994
  255   2 O    8      10.693151    6.056083   12.040204       6.0000     15.9994
  256   2 O    8      12.498379    7.851343   12.042792       6.0000     15.9994
  257   2 O    8      10.180674    8.377332   13.547930       6.0000     15.9994
  258   2 O    8      13.006260    5.534262   13.544791       6.0000     15.9994
  259   2 O    8       1.417063   10.692352   12.039370       6.0000     15.9994
  260   2 O    8       3.216657   12.492003   12.039397       6.0000     15.9994
  261   2 O    8       0.899476   13.009327   13.544507       6.0000     15.9994
  262   2 O    8       3.732133   10.176851   13.545208       6.0000     15.9994
  263   2 O    8       6.055192   10.694074   12.040159       6.0000     15.9994
  264   2 O    8       7.850443   12.499299   12.042754       6.0000     15.9994
  265   2 O    8       5.533352   13.007165   13.544756       6.0000     15.9994
  266   2 O    8       8.376425   10.181563   13.547924       6.0000     15.9994
  267   2 O    8      10.696696   10.697609   12.044643       6.0000     15.9994
  268   2 O    8      12.494021   12.494956   12.040288       6.0000     15.9994
  269   2 O    8      10.171346   13.013214   13.544512       6.0000     15.9994
  270   2 O    8      13.012317   10.172241   13.544548       6.0000     15.9994




 SCF PARAMETERS         Density guess:                                   RESTART
                        --------------------------------------------------------
                        max_scf:                                             100
                        max_scf_history:                                       0
                        max_diis:                                              4
                        --------------------------------------------------------
                        eps_scf:                                        5.00E-07
                        eps_scf_history:                                0.00E+00
                        eps_diis:                                       1.00E-01
                        eps_eigval:                                     1.00E-05
                        --------------------------------------------------------
                        level_shift [a.u.]:                             0.000000
                        --------------------------------------------------------
                        Outer loop SCF in use 
                        No variables optimised in outer loop
                        eps_scf                                         5.00E-07
                        max_scf                                               20
                        DIIS optimization
                        DIIS buffer length                                     3
                        step_size                                       1.50E-01

 PW_GRID| Information for grid number                                          1
 PW_GRID| Grid distributed over                                    40 processors
 PW_GRID| Real space group dimensions                                    40    1
 PW_GRID| the grid is blocked:                                                NO
 PW_GRID| Cutoff [a.u.]                                                    400.0
 PW_GRID| spherical cutoff:                                                   NO
 PW_GRID|   Bounds   1           -120     119                Points:         240
 PW_GRID|   Bounds   2           -120     119                Points:         240
 PW_GRID|   Bounds   3           -144     143                Points:         288
 PW_GRID| Volume element (a.u.^3)  0.1185E-02     Volume (a.u.^3)     19651.0990
 PW_GRID| Grid span                                                    FULLSPACE
 PW_GRID|   Distribution                         Average         Max         Min
 PW_GRID|   G-Vectors                           414720.0      414720      414720
 PW_GRID|   G-Rays                                1728.0        1728        1728
 PW_GRID|   Real Space Points                   414720.0      414720      414720

 PW_GRID| Information for grid number                                          2
 PW_GRID| Number of the reference grid                                         1
 PW_GRID| Grid distributed over                                    40 processors
 PW_GRID| Real space group dimensions                                    40    1
 PW_GRID| the grid is blocked:                                                NO
 PW_GRID| Cutoff [a.u.]                                                    100.0
 PW_GRID| spherical cutoff:                                                   NO
 PW_GRID|   Bounds   1            -60      59                Points:         120
 PW_GRID|   Bounds   2            -60      59                Points:         120
 PW_GRID|   Bounds   3            -72      71                Points:         144
 PW_GRID| Volume element (a.u.^3)  0.9477E-02     Volume (a.u.^3)     19651.0990
 PW_GRID| Grid span                                                    FULLSPACE
 PW_GRID|   Distribution                         Average         Max         Min
 PW_GRID|   G-Vectors                            51840.0       52680       51000
 PW_GRID|   G-Rays                                 432.0         439         425
 PW_GRID|   Real Space Points                    51840.0       51840       51840

 PW_GRID| Information for grid number                                          3
 PW_GRID| Number of the reference grid                                         1
 PW_GRID| Grid distributed over                                    40 processors
 PW_GRID| Real space group dimensions                                    40    1
 PW_GRID| the grid is blocked:                                                NO
 PW_GRID| Cutoff [a.u.]                                                     25.0
 PW_GRID| spherical cutoff:                                                   NO
 PW_GRID|   Bounds   1            -30      29                Points:          60
 PW_GRID|   Bounds   2            -30      29                Points:          60
 PW_GRID|   Bounds   3            -36      35                Points:          72
 PW_GRID| Volume element (a.u.^3)  0.7581E-01     Volume (a.u.^3)     19651.0990
 PW_GRID| Grid span                                                    FULLSPACE
 PW_GRID|   Distribution                         Average         Max         Min
 PW_GRID|   G-Vectors                             6480.0        6720        6300
 PW_GRID|   G-Rays                                 108.0         112         105
 PW_GRID|   Real Space Points                     6480.0        8640        4320

 PW_GRID| Information for grid number                                          4
 PW_GRID| Number of the reference grid                                         1
 PW_GRID| Grid distributed over                                    40 processors
 PW_GRID| Real space group dimensions                                    40    1
 PW_GRID| the grid is blocked:                                                NO
 PW_GRID| Cutoff [a.u.]                                                      6.2
 PW_GRID| spherical cutoff:                                                   NO
 PW_GRID|   Bounds   1            -15      14                Points:          30
 PW_GRID|   Bounds   2            -15      14                Points:          30
 PW_GRID|   Bounds   3            -18      17                Points:          36
 PW_GRID| Volume element (a.u.^3)  0.6065         Volume (a.u.^3)     19651.0990
 PW_GRID| Grid span                                                    FULLSPACE
 PW_GRID|   Distribution                         Average         Max         Min
 PW_GRID|   G-Vectors                              810.0         930         750
 PW_GRID|   G-Rays                                  27.0          31          25
 PW_GRID|   Real Space Points                      810.0        1080           0

 PW_GRID| Information for grid number                                          5
 PW_GRID| Number of the reference grid                                         1
 PW_GRID| Grid distributed over                                    40 processors
 PW_GRID| Real space group dimensions                                    40    1
 PW_GRID| the grid is blocked:                                                NO
 PW_GRID| Cutoff [a.u.]                                                      1.6
 PW_GRID| spherical cutoff:                                                   NO
 PW_GRID|   Bounds   1             -7       7                Points:          15
 PW_GRID|   Bounds   2             -7       7                Points:          15
 PW_GRID|   Bounds   3             -9       8                Points:          18
 PW_GRID| Volume element (a.u.^3)   4.852         Volume (a.u.^3)     19651.0990
 PW_GRID| Grid span                                                    FULLSPACE
 PW_GRID|   Distribution                         Average         Max         Min
 PW_GRID|   G-Vectors                              101.2         150          75
 PW_GRID|   G-Rays                                   6.8          10           5
 PW_GRID|   Real Space Points                      101.2         270           0

 POISSON| Solver                                                        PERIODIC
 POISSON| Periodicity                                                        XYZ

 RS_GRID| Information for grid number                                          1
 RS_GRID|   Bounds   1           -120     119                Points:         240
 RS_GRID|   Bounds   2           -120     119                Points:         240
 RS_GRID|   Bounds   3           -144     143                Points:         288
 RS_GRID| Real space distribution over                                  5 groups
 RS_GRID| Real space distribution along direction                              2
 RS_GRID| Border size                                                         32
 RS_GRID| Real space distribution over                                  8 groups
 RS_GRID| Real space distribution along direction                              3
 RS_GRID| Border size                                                         32
 RS_GRID|   Distribution                         Average         Max         Min
 RS_GRID|   Planes                                 112.0         112         112
 RS_GRID|   Distribution                         Average         Max         Min
 RS_GRID|   Planes                                 100.0         100         100

 RS_GRID| Information for grid number                                          2
 RS_GRID|   Bounds   1            -60      59                Points:         120
 RS_GRID|   Bounds   2            -60      59                Points:         120
 RS_GRID|   Bounds   3            -72      71                Points:         144
 RS_GRID| Real space distribution over                                  5 groups
 RS_GRID| Real space distribution along direction                              2
 RS_GRID| Border size                                                         28
 RS_GRID| Real space distribution over                                  8 groups
 RS_GRID| Real space distribution along direction                              3
 RS_GRID| Border size                                                         28
 RS_GRID|   Distribution                         Average         Max         Min
 RS_GRID|   Planes                                  80.0          80          80
 RS_GRID|   Distribution                         Average         Max         Min
 RS_GRID|   Planes                                  74.0          74          74

 RS_GRID| Information for grid number                                          3
 RS_GRID|   Bounds   1            -30      29                Points:          60
 RS_GRID|   Bounds   2            -30      29                Points:          60
 RS_GRID|   Bounds   3            -36      35                Points:          72
 RS_GRID| Real space fully replicated
 RS_GRID| Group size                                                           1

 RS_GRID| Information for grid number                                          4
 RS_GRID|   Bounds   1            -15      14                Points:          30
 RS_GRID|   Bounds   2            -15      14                Points:          30
 RS_GRID|   Bounds   3            -18      17                Points:          36
 RS_GRID| Real space fully replicated
 RS_GRID| Group size                                                           1

 RS_GRID| Information for grid number                                          5
 RS_GRID|   Bounds   1             -7       7                Points:          15
 RS_GRID|   Bounds   2             -7       7                Points:          15
 RS_GRID|   Bounds   3             -9       8                Points:          18
 RS_GRID| Real space fully replicated
 RS_GRID| Group size                                                           1

 BFGS| Use rational function optimization for step estimation:                NO
 BFGS| Use model Hessian for initial guess:                                  YES
 BFGS| Restart Hessian:                                                       NO
 BFGS| Trust radius:                                                       0.472

 *** WARNING in fm/cp_fm_elpa.F:521 :: Setting real_kernel for ELPA failed ***


 *******************************************************************************
 ***                     STARTING GEOMETRY OPTIMIZATION                      ***
 ***                                   BFGS                                  ***
 *******************************************************************************

 Spin 1

 Number of electrons:                                                       1081
 Number of occupied orbitals:                                               1081
 Number of molecular orbitals:                                              1081

 Spin 2

 Number of electrons:                                                       1080
 Number of occupied orbitals:                                               1080
 Number of molecular orbitals:                                              1080

 Number of orbital functions:                                               4680

 *** WARNING in fm/cp_fm_elpa.F:521 :: Setting real_kernel for ELPA failed ***

 Number of independent orbital functions:                                   4680

 Extrapolation method: initial_guess


 CDFT EXTERNAL SCF WAVEFUNCTION OPTIMIZATION

  ---------------------------------- CDFT --------------------------------------
  Optimizing a density constraint in an external SCF loop 
  
  Type of constraint:     Hirshfeld
  Number of constraints:          1
  Using fragment densities:       F
  
  Calculating atomic CDFT charges

  Minimizer               : Secant

  Reusing OT preconditioner:       F

  Hirshfeld constraint settings
  
  Shape function type:      Density

  ---------------------------------- CDFT --------------------------------------


 SCF WAVEFUNCTION OPTIMIZATION

  ----------------------------------- OT ---------------------------------------
  Minimizer      : CG                  : conjugate gradient
  Preconditioner : FULL_ALL            : diagonalization, state selective
  Precond_solver : DEFAULT
  Line search    : 2PNT                : 2 energies, one gradient
[...]
 *  O/|                                                                        *
 * /| |                                                                        *
 * / \                                           mpiwrap/message_passing.F:843 *
 *******************************************************************************


 *******************************************************************************
 *   ___                                                                       *
 *  /   \                                                                      *
 * [ABORT]                                                                     *
 *  \___/        mp_world_finalize: assert failed:  leaking communicators      *
 *    |                                                                        *
 *  O/|                                                                        *
 * /| |                                                                        *
 * / \                                           mpiwrap/message_passing.F:843 *
 *******************************************************************************


 *******************************************************************************
 *   ___                                                                       *
 *  /   \                                                                      *
 * [ABORT]                                                                     *
 *  \___/        mp_world_finalize: assert failed:  leaking communicators      *
 *    |                                                                        *
 *  O/|                                                                        *
 * /| |                                                                        *
 * / \                                           mpiwrap/message_passing.F:843 *
 *******************************************************************************


 *******************************************************************************
 *   ___                                                                       *
 *  /   \                                                                      *
 * [ABORT]                                                                     *
 *  \___/        mp_world_finalize: assert failed:  leaking communicators      *
 *    |                                                                        *
 *  O/|                                                                        *
 * /| |                                                                        *
 * / \                                           mpiwrap/message_passing.F:843 *
 *******************************************************************************

 * / \                                           mpiwrap/message_passing.F:843 *
 *******************************************************************************


 *******************************************************************************
 *   ___                                                                       *
 *  /   \                                                                      *
 * [ABORT]                                                                     *
 *  \___/        mp_world_finalize: assert failed:  leaking communicators      *
 *    |                                                                        *
 *  O/|                                                                        *
 * /| |                                                                        *
 * / \                                           mpiwrap/message_passing.F:843 *
 *******************************************************************************


 *******************************************************************************
 *   ___                                                                       *
 *  /   \                                                                      *
 * [ABORT]                                                                     *
 *  \___/        mp_world_finalize: assert failed:  leaking communicators      *
 *    |                                                                        *
 *  O/|                                                                        *
 * /| |                                                                        *
 * / \                                           mpiwrap/message_passing.F:843 *
 *******************************************************************************


 *******************************************************************************
 *   ___                                                                       *
 *  /   \                                                                      *
 * [ABORT]                                                                     *
 *  \___/        mp_world_finalize: assert failed:  leaking communicators      *
 *    |                                                                        *
 *  O/|                                                                        *
 * /| |                                                                        *
 * / \                                           mpiwrap/message_passing.F:843 *
 *******************************************************************************


 *******************************************************************************
 *   ___                                                                       *
 *  /   \                                                                      *
 * [ABORT]                                                                     *
 *  \___/        mp_world_finalize: assert failed:  leaking communicators      *
 *    |                                                                        *
 *  O/|                                                                        *
 * /| |                                                                        *
 * / \                                           mpiwrap/message_passing.F:843 *
 *******************************************************************************


 *******************************************************************************
 *   ___                                                                       *
 *  /   \                                                                      *
 * [ABORT]                                                                     *
 *  \___/        mp_world_finalize: assert failed:  leaking communicators      *
 *    |                                                                        *
 *  O/|                                                                        *
 * /| |                                                                        *
 * / \                                           mpiwrap/message_passing.F:843 *
 *******************************************************************************


 *******************************************************************************
 *   ___                                                                       *
 *  /   \                                                                      *
 * [ABORT]                                                                     *
 *  \___/        mp_world_finalize: assert failed:  leaking communicators      *
 *    |                                                                        *
 *  O/|                                                                        *
 * /| |                                                                        *
 * / \                                           mpiwrap/message_passing.F:843 *
 *******************************************************************************


 *******************************************************************************
 *   ___                                                                       *
 *  /   \                                                                      *
 * [ABORT]                                                                     *
 *  \___/        mp_world_finalize: assert failed:  leaking communicators      *
 *    |                                                                        *
 *  O/|                                                                        *
 * /| |                                                                        *
 * / \                                           mpiwrap/message_passing.F:843 *
 *******************************************************************************


 *******************************************************************************
 *   ___                                                                       *
 *  /   \                                                                      *
 * [ABORT]                                                                     *
 *  \___/        mp_world_finalize: assert failed:  leaking communicators      *
 *    |                                                                        *
 *  O/|                                                                        *
 * /| |                                                                        *
 * / \                                           mpiwrap/message_passing.F:843 *
 *******************************************************************************


 *******************************************************************************
 *   ___                                                                       *
 *  /   \                                                                      *
 * [ABORT]                                                                     *
 *  \___/        mp_world_finalize: assert failed:  leaking communicators      *
 *    |                                                                        *
 *  O/|                                                                        *
 * /| |                                                                        *
 * / \                                           mpiwrap/message_passing.F:843 *
 *******************************************************************************


 *******************************************************************************
 *   ___                                                                       *
 *  /   \                                                                      *
 * [ABORT]                                                                     *
 *  \___/        mp_world_finalize: assert failed:  leaking communicators      *
 *    |                                                                        *
 *  O/|                                                                        *
 * /| |                                                                        *
 * / \                                           mpiwrap/message_passing.F:843 *
 *******************************************************************************


 *******************************************************************************
 *   ___                                                                       *
 *  /   \                                                                      *
 * [ABORT]                                                                     *
 *  \___/        mp_world_finalize: assert failed:  leaking communicators      *
 *    |                                                                        *
 *  O/|                                                                        *
 * /| |                                                                        *
 * / \                                           mpiwrap/message_passing.F:843 *
 *******************************************************************************


 *******************************************************************************
 *   ___                                                                       *
 *  /   \                                                                      *
 * [ABORT]                                                                     *
 *  \___/        mp_world_finalize: assert failed:  leaking communicators      *
 *    |                                                                        *
 *  O/|                                                                        *
 * /| |                                                                        *
 * / \                                           mpiwrap/message_passing.F:843 *
 *******************************************************************************


 *******************************************************************************
 *   ___                                                                       *
 *  /   \                                                                      *
 * [ABORT]                                                                     *
 *  \___/        mp_world_finalize: assert failed:  leaking communicators      *
 *    |                                                                        *
 *  O/|                                                                        *
 * /| |                                                                        *
 * / \                                           mpiwrap/message_passing.F:843 *
 *******************************************************************************


 *******************************************************************************
 *   ___                                                                       *
 *  /   \                                                                      *
 * [ABORT]                                                                     *
 *  \___/        mp_world_finalize: assert failed:  leaking communicators      *
 *    |                                                                        *
 *  O/|                                                                        *
 * /| |                                                                        *
 * / \                                           mpiwrap/message_passing.F:843 *
 *******************************************************************************


 *******************************************************************************
 *   ___                                                                       *
 *  /   \                                                                      *
 * [ABORT]                                                                     *
 *  \___/        mp_world_finalize: assert failed:  leaking communicators      *
 *    |                                                                        *
 *  O/|                                                                        *
 * /| |                                                                        *
 * / \                                           mpiwrap/message_passing.F:843 *
 *******************************************************************************


 *******************************************************************************
 *   ___                                                                       *
 *  /   \                                                                      *
 * [ABORT]                                                                     *
 *  \___/        mp_world_finalize: assert failed:  leaking communicators      *
 *    |                                                                        *
 *  O/|                                                                        *
 * /| |                                                                        *
 * / \                                           mpiwrap/message_passing.F:843 *
 *******************************************************************************


 *******************************************************************************
 *   ___                                                                       *
 *  /   \                                                                      *
 * [ABORT]                                                                     *
 *  \___/        mp_world_finalize: assert failed:  leaking communicators      *
 *    |                                                                        *
 *  O/|                                                                        *
 * /| |                                                                        *
 * / \                                           mpiwrap/message_passing.F:843 *
 *******************************************************************************


 *******************************************************************************
 *   ___                                                                       *
 *  /   \                                                                      *
 * [ABORT]                                                                     *
 *  \___/        mp_world_finalize: assert failed:  leaking communicators      *
 *    |                                                                        *
 *  O/|                                                                        *
 * /| |                                                                        *
 * / \                                           mpiwrap/message_passing.F:843 *
 *******************************************************************************


 *******************************************************************************
 *   ___                                                                       *
 *  /   \                                                                      *
 * [ABORT]                                                                     *
 *  \___/        mp_world_finalize: assert failed:  leaking communicators      *
 *    |                                                                        *
 *  O/|                                                                        *
 * /| |                                                                        *
 * / \                                           mpiwrap/message_passing.F:843 *
 *******************************************************************************


 *******************************************************************************
 *   ___                                                                       *
 *  /   \                                                                      *
 * [ABORT]                                                                     *
 *  \___/        mp_world_finalize: assert failed:  leaking communicators      *
 *    |                                                                        *
 *  O/|                                                                        *
 * /| |                                                                        *
 * / \                                           mpiwrap/message_passing.F:843 *
 *******************************************************************************


 *******************************************************************************
 *   ___                                                                       *
 *  /   \                                                                      *
 * [ABORT]                                                                     *
 *  \___/        mp_world_finalize: assert failed:  leaking communicators      *
 *    |                                                                        *
 *  O/|                                                                        *
 * /| |                                                                        *
 * / \                                           mpiwrap/message_passing.F:843 *
 *******************************************************************************

