 DBCSR| CPU Multiplication driver                                           XSMM
 DBCSR| Multrec recursion limit                                              512
 DBCSR| Multiplication stack size                                           1000
 DBCSR| Maximum elements for images                                    UNLIMITED
 DBCSR| Multiplicative factor virtual images                                   1
 DBCSR| Use multiplication densification                                       T
 DBCSR| Multiplication size stacks                                             3
 DBCSR| Use memory pool for CPU allocation                                     F
 DBCSR| Number of 3D layers                                               SINGLE
 DBCSR| Use MPI memory allocation                                              F
 DBCSR| Use RMA algorithm                                                      F
 DBCSR| Use Communication thread                                               T
 DBCSR| Communication thread load                                             87
 DBCSR| MPI: My node id                                                        0
 DBCSR| MPI: Number of nodes                                                  40
 DBCSR| OMP: Current number of threads                                         1
 DBCSR| OMP: Max number of threads                                             1
 DBCSR| Split modifier for TAS multiplication algorithm                  1.0E+00


  **** **** ******  **  PROGRAM STARTED AT               2023-05-19 17:34:07.701
 ***** ** ***  *** **   PROGRAM STARTED ON                               node166
 **    ****   ******    PROGRAM STARTED BY                                  wyin
 ***** **    ** ** **   PROGRAM PROCESS ID                                  2482
  **** **  *******  **  PROGRAM STARTED IN /home/wyin/bozai/job/1-TiO2/2-slab-11
                                           0/1-pure/3-Marcus/3-Hab/t/2-40-24

 CP2K| version string:                                       CP2K version 2022.1
 CP2K| source code revision number:                                  git:2caeb6f
 CP2K| cp2kflags: omp libint fftw3 libxc elpa parallel mpi3 scalapack xsmm plume
 CP2K|            d2 spglib mkl libvori libbqb
 CP2K| is freely available from                            https://www.cp2k.org/
 CP2K| Program compiled at                          Mon Mar 13 16:18:57 CET 2023
 CP2K| Program compiled on                                               login02
 CP2K| Program compiled for                                                local
 CP2K| Data directory path                   /home/wyin/package/cp2k-2022.1/data
 CP2K| Input file name                                                 input.inp
 
 GLOBAL| Force Environment number                                              1
 GLOBAL| Basis set file name                                           BASIS_SET
 GLOBAL| Potential file name                                           POTENTIAL
 GLOBAL| MM Potential file name                                     MM_POTENTIAL
 GLOBAL| Coordinate file name                                      pure-slab.xyz
 GLOBAL| Force Environment number                                              2
 GLOBAL| Basis set file name            /home/wyin/bozai/Bootstrap/BASIS_SET/BAS
 GLOBAL| Potential file name            /home/wyin/bozai/Bootstrap/BASIS_SET/GTH
 GLOBAL| MM Potential file name                                     MM_POTENTIAL
 GLOBAL| Coordinate file name                                      __STD_INPUT__
 GLOBAL| Force Environment number                                              3
 GLOBAL| Basis set file name            /home/wyin/bozai/Bootstrap/BASIS_SET/BAS
 GLOBAL| Potential file name            /home/wyin/bozai/Bootstrap/BASIS_SET/GTH
 GLOBAL| MM Potential file name                                     MM_POTENTIAL
 GLOBAL| Coordinate file name                                      __STD_INPUT__
 GLOBAL| Method name                                                        CP2K
 GLOBAL| Project name                                                    PROJECT
 GLOBAL| Run type                                                         ENERGY
 GLOBAL| FFT library                                                       FFTW3
 GLOBAL| Diagonalization library                                            ELPA
 GLOBAL| Minimum number of eigenvectors for ELPA usage                        16
 GLOBAL| Orthonormality check for eigenvectors                          DISABLED
 GLOBAL| Matrix multiplication library                                 ScaLAPACK
 GLOBAL| All-to-all communication in single precision                          F
 GLOBAL| FFTs using library dependent lengths                                  F
 GLOBAL| Grid backend                                                       AUTO
 GLOBAL| Global print level                                               MEDIUM
 GLOBAL| MPI I/O enabled                                                       T
 GLOBAL| Total number of message passing processes                            40
 GLOBAL| Number of threads for this process                                    1
 GLOBAL| This output is from process                                           0
 GLOBAL| Stack size for threads created by OpenMP (OMP_STACKSIZE)        default
 GLOBAL| CPU model name                Intel(R) Xeon(R) CPU E5-2640 v4 @ 2.40GHz
 GLOBAL| CPUID                                                              1002
 GLOBAL| Compiled for CPUID                                                 1001

 *** HINT in environment.F:869 :: The compiler target flags (x86_avx) used ***
 *** to build this binary cannot exploit all extensions of this CPU model  ***
 *** (x86_avx2). Consider compiler target flags as part of FCFLAGS and     ***
 *** CFLAGS (ARCH file).                                                   ***


 MEMORY| system memory details [Kb]
 MEMORY|                        rank 0           min           max       average
 MEMORY| MemTotal            197798996     197798996     197799176     197799086
 MEMORY| MemFree             191469088     191469088     191486580     191477834
 MEMORY| Buffers                 18684         18684         18904         18794
 MEMORY| Cached                 359332        356300        359332        357816
 MEMORY| Slab                   114300        113780        114300        114040
 MEMORY| SReclaimable            42560         41928         42560         42244
 MEMORY| MemLikelyFree       191889664     191889664     191903712     191896688


 *** Fundamental physical constants (SI units) ***

 *** Literature: B. J. Mohr and B. N. Taylor,
 ***             CODATA recommended values of the fundamental physical
 ***             constants: 2006, Web Version 5.1
 ***             http://physics.nist.gov/constants

 Speed of light in vacuum [m/s]                             2.99792458000000E+08
 Magnetic constant or permeability of vacuum [N/A**2]       1.25663706143592E-06
 Electric constant or permittivity of vacuum [F/m]          8.85418781762039E-12
 Planck constant (h) [J*s]                                  6.62606896000000E-34
 Planck constant (h-bar) [J*s]                              1.05457162825177E-34
 Elementary charge [C]                                      1.60217648700000E-19
 Electron mass [kg]                                         9.10938215000000E-31
 Electron g factor [ ]                                     -2.00231930436220E+00
 Proton mass [kg]                                           1.67262163700000E-27
 Fine-structure constant                                    7.29735253760000E-03
 Rydberg constant [1/m]                                     1.09737315685270E+07
 Avogadro constant [1/mol]                                  6.02214179000000E+23
 Boltzmann constant [J/K]                                   1.38065040000000E-23
 Atomic mass unit [kg]                                      1.66053878200000E-27
 Bohr radius [m]                                            5.29177208590000E-11

 *** Conversion factors ***

 [u] -> [a.u.]                                              1.82288848426455E+03
 [Angstrom] -> [Bohr] = [a.u.]                              1.88972613288564E+00
 [a.u.] = [Bohr] -> [Angstrom]                              5.29177208590000E-01
 [a.u.] -> [s]                                              2.41888432650478E-17
 [a.u.] -> [fs]                                             2.41888432650478E-02
 [a.u.] -> [J]                                              4.35974393937059E-18
 [a.u.] -> [N]                                              8.23872205491840E-08
 [a.u.] -> [K]                                              3.15774647902944E+05
 [a.u.] -> [kJ/mol]                                         2.62549961709828E+03
 [a.u.] -> [kcal/mol]                                       6.27509468713739E+02
 [a.u.] -> [Pa]                                             2.94210107994716E+13
 [a.u.] -> [bar]                                            2.94210107994716E+08
 [a.u.] -> [atm]                                            2.90362800883016E+08
 [a.u.] -> [eV]                                             2.72113838565563E+01
 [a.u.] -> [Hz]                                             6.57968392072181E+15
 [a.u.] -> [1/cm] (wave numbers)                            2.19474631370540E+05
 [a.u./Bohr**2] -> [1/cm]                                   5.14048714338585E+03
 
 MIXED_ENV| Number of created MPI groups:                                      1
 MIXED_ENV| Task to group correspondence:
  (   0 :    0)  (   1 :    0)  (   2 :    0)  (   3 :    0)
  (   4 :    0)  (   5 :    0)  (   6 :    0)  (   7 :    0)
  (   8 :    0)  (   9 :    0)  (  10 :    0)  (  11 :    0)
  (  12 :    0)  (  13 :    0)  (  14 :    0)  (  15 :    0)
  (  16 :    0)  (  17 :    0)  (  18 :    0)  (  19 :    0)
  (  20 :    0)  (  21 :    0)  (  22 :    0)  (  23 :    0)
  (  24 :    0)  (  25 :    0)  (  26 :    0)  (  27 :    0)
  (  28 :    0)  (  29 :    0)  (  30 :    0)  (  31 :    0)
  (  32 :    0)  (  33 :    0)  (  34 :    0)  (  35 :    0)
  (  36 :    0)  (  37 :    0)  (  38 :    0)  (  39 :    0)

 CELL_TOP| Volume [angstrom^3]:                                      3844.865420
 CELL_TOP| Vector a [angstrom    12.994     0.000     0.000   |a| =    12.993800
 CELL_TOP| Vector b [angstrom     0.000    11.836     0.000   |b| =    11.836000
 CELL_TOP| Vector c [angstrom     0.000     0.000    25.000   |c| =    25.000000
 CELL_TOP| Angle (b,c), alpha [degree]:                                90.000000
 CELL_TOP| Angle (a,c), beta  [degree]:                                90.000000
 CELL_TOP| Angle (a,b), gamma [degree]:                                90.000000
 CELL_TOP| Numerically orthorhombic:                                         YES
 
 GENERATE|  Preliminary Number of Bonds generated:                             0
 GENERATE|  Achieved consistency in connectivity generation.

 CELL| Volume [angstrom^3]:                                          3844.865420
 CELL| Vector a [angstrom]:      12.994     0.000     0.000   |a| =    12.993800
 CELL| Vector b [angstrom]:       0.000    11.836     0.000   |b| =    11.836000
 CELL| Vector c [angstrom]:       0.000     0.000    25.000   |c| =    25.000000
 CELL| Angle (b,c), alpha [degree]:                                    90.000000
 CELL| Angle (a,c), beta  [degree]:                                    90.000000
 CELL| Angle (a,b), gamma [degree]:                                    90.000000
 CELL| Numerically orthorhombic:                                             YES

 CELL_REF| Volume [angstrom^3]:                                      3844.865420
 CELL_REF| Vector a [angstrom    12.994     0.000     0.000   |a| =    12.993800
 CELL_REF| Vector b [angstrom     0.000    11.836     0.000   |b| =    11.836000
 CELL_REF| Vector c [angstrom     0.000     0.000    25.000   |c| =    25.000000
 CELL_REF| Angle (b,c), alpha [degree]:                                90.000000
 CELL_REF| Angle (a,c), beta  [degree]:                                90.000000
 CELL_REF| Angle (a,b), gamma [degree]:                                90.000000
 CELL_REF| Numerically orthorhombic:                                         YES


 MOLECULE KIND INFORMATION


 All atoms are their own molecule, skipping detailed information
 
 MIXED_CDFT| Activating mixed CDFT calculation
 MIXED_CDFT| Number of CDFT states:                                            2
 MIXED_CDFT| CDFT states calculation mode: serial
 MIXED_CDFT| The constraints are separately built for all CDFT states
 MIXED_CDFT| Calculating electronic coupling between states:                   T
 MIXED_CDFT| Calculating electronic coupling reliability metric:               F
 MIXED_CDFT| Configuration interaction (CDFT-CI) was requested:                F
 MIXED_CDFT| Block diagonalizing the mixed CDFT Hamiltonian:                   F
 MIXED_CDFT| Matrix inversions calculated with LU decomposition.

  ------------------------- CDFT coupling information --------------------------
  Information at step (fs):                                                 0.00

  ############################################
  ###### CDFT states I =  1 and J =   2 ######
  ############################################
  Atomic group:                                                                1
  Strength of constraint I:                                      -0.049446696918
  Strength of constraint J:                                      -0.049447579843
  Final value of constraint I:                                    0.999482822589
  Final value of constraint J:                                    0.999482333883

  Overlap between states I and J:                                 0.280264632409
  Charge transfer energy (J-I) (Hartree):                         0.000001907599
 
  Diabatic electronic coupling (Lowdin, mHartree):                7.417772726853
  ------------------------------------------------------------------------------
 NO FORCE_EVAL section calculated the dipole

 ENERGY| Total FORCE_EVAL ( MIXED ) energy [a.u.]:         -5775.837125171761727

 -------------------------------------------------------------------------------
 -                                                                             -
 -                                DBCSR STATISTICS                             -
 -                                                                             -
 -------------------------------------------------------------------------------
 COUNTER                                    TOTAL       BLAS       SMM       ACC
 flops   832 x    65 x   192            996802560       0.0%    100.0%      0.0%
 flops   193 x    65 x    33           1477098480       0.0%    100.0%      0.0%
 flops   832 x    65 x   160           3322675200       0.0%    100.0%      0.0%
 flops    13 x     1 x    13           4159184640       0.0%    100.0%      0.0%
 flops   192 x    65 x    33           4408335360       0.0%    100.0%      0.0%
 flops    26 x     1 x    13           4789649280       0.0%    100.0%      0.0%
 flops    13 x     1 x    26           4789649280       0.0%    100.0%      0.0%
 flops    26 x     1 x    26           4817879040       0.0%    100.0%      0.0%
 flops   193 x    64 x    33           7271869440       0.0%    100.0%      0.0%
 flops   193 x    96 x    33           8726243328       0.0%    100.0%      0.0%
 flops   832 x    64 x   192          10796138496       0.0%    100.0%      0.0%
 flops   193 x    65 x    64          11458703360       0.0%    100.0%      0.0%
 flops   832 x    96 x   192          11777605632       0.0%    100.0%      0.0%
 flops   832 x    65 x    33          14020131840       0.0%    100.0%      0.0%
 flops   193 x    65 x   182          15087319520       0.0%    100.0%      0.0%
 flops   193 x    65 x    32          21485068800       0.0%    100.0%      0.0%
 flops   192 x    64 x    33          21702574080       0.0%    100.0%      0.0%
 flops   193 x    65 x   156          25863976320       0.0%    100.0%      0.0%
 flops   192 x    96 x    33          26043088896       0.0%    100.0%      0.0%
 flops   193 x    65 x   169          28019307680       0.0%    100.0%      0.0%
 flops   192 x    65 x    64          34197995520       0.0%    100.0%      0.0%
 flops   832 x    64 x   160          35987128320       0.0%    100.0%      0.0%
 flops   832 x    96 x   160          39258685440       0.0%    100.0%      0.0%
 flops    13 x    13 x    33          42185320320       0.0%    100.0%      0.0%
 flops   192 x    65 x   182          45027440640       0.0%    100.0%      0.0%
 flops    26 x    13 x    33          48144233280       0.0%    100.0%      0.0%
 flops    13 x    26 x    33          48144233280       0.0%    100.0%      0.0%
 flops    26 x    26 x    33          49184678400       0.0%    100.0%      0.0%
 flops   193 x    64 x    64          56412078080       0.0%    100.0%      0.0%
 flops   192 x    65 x    32          64121241600       0.0%    100.0%      0.0%
 flops   193 x    96 x    64          67694493696       0.0%    100.0%      0.0%
 flops   832 x    64 x    33          69022187520       0.0%    100.0%      0.0%
 flops   193 x    64 x   182          74276034560       0.0%    100.0%      0.0%
 flops   192 x    65 x   156          77189898240       0.0%    100.0%      0.0%
 flops   832 x    96 x    33          82826625024       0.0%    100.0%      0.0%
 flops   192 x    65 x   169          83622389760       0.0%    100.0%      0.0%
 flops   193 x    96 x   182          89131241472       0.0%    100.0%      0.0%
 flops   193 x    64 x    32         105772646400       0.0%    100.0%      0.0%
 flops   832 x    65 x    64         108762234880       0.0%    100.0%      0.0%
 flops   193 x    96 x    32         126927175680       0.0%    100.0%      0.0%
 flops   193 x    64 x   156         127330344960       0.0%    100.0%      0.0%
 flops   193 x    64 x   169         137941207040       0.0%    100.0%      0.0%
 flops   193 x    96 x   156         152796413952       0.0%    100.0%      0.0%
 flops   193 x    96 x   169         165529448448       0.0%    100.0%      0.0%
 flops   832 x    65 x   182         170079436800       0.0%    100.0%      0.0%
 flops   832 x    65 x    32         203929190400       0.0%    100.0%      0.0%
 flops   832 x    65 x   156         291564748800       0.0%    100.0%      0.0%
 flops   832 x    65 x   169         315861811200       0.0%    100.0%      0.0%
 flops   192 x    64 x    64         429278625792       0.0%    100.0%      0.0%
 flops   192 x    96 x    64         462950498304       0.0%    100.0%      0.0%
 flops   192 x    64 x   182         576351240192       0.0%    100.0%      0.0%
 flops   192 x    96 x   182         620685950976       0.0%    100.0%      0.0%
 flops    13 x    13 x    64         654511636480       0.0%    100.0%      0.0%
 flops    26 x    13 x    64         746965073920       0.0%    100.0%      0.0%
 flops    13 x    26 x    64         746965073920       0.0%    100.0%      0.0%
 flops    26 x    26 x    64         763107737600       0.0%    100.0%      0.0%
 flops   192 x    64 x    32         837512331264       0.0%    100.0%      0.0%
 flops   192 x    96 x    32         900647092224       0.0%    100.0%      0.0%
 flops   192 x    64 x   156         988030697472       0.0%    100.0%      0.0%
 flops    13 x    13 x   192        1000291368960       0.0%    100.0%      0.0%
 flops   192 x    96 x   156        1064033058816       0.0%    100.0%      0.0%
 flops   192 x    64 x   169        1070366588928       0.0%    100.0%      0.0%
 flops    26 x    13 x   192        1141588131840       0.0%    100.0%      0.0%
 flops    13 x    26 x   192        1141588131840       0.0%    100.0%      0.0%
 flops   192 x    96 x   169        1152702480384       0.0%    100.0%      0.0%
 flops    26 x    26 x   192        1166258995200       0.0%    100.0%      0.0%
 flops   832 x    64 x    64        1185830404096       0.0%    100.0%      0.0%
 flops    13 x    13 x    32        1268116295680       0.0%    100.0%      0.0%
 flops   832 x    96 x    64        1292919373824       0.0%    100.0%      0.0%
 flops    26 x    13 x    32        1447244830720       0.0%    100.0%      0.0%
 flops    13 x    26 x    32        1447244830720       0.0%    100.0%      0.0%
 flops    26 x    26 x    32        1478521241600       0.0%    100.0%      0.0%
 flops   832 x    64 x   182        1842091130880       0.0%    100.0%      0.0%
 flops   832 x    96 x   182        2009553960960       0.0%    100.0%      0.0%
 flops   832 x    64 x    32        2304730202112       0.0%    100.0%      0.0%
 flops   832 x    96 x    32        2505522020352       0.0%    100.0%      0.0%
 flops   832 x    64 x   156        3157870510080       0.0%    100.0%      0.0%
 flops    13 x    13 x   160        3334304563200       0.0%    100.0%      0.0%
 flops   832 x    64 x   169        3421026385920       0.0%    100.0%      0.0%
 flops   832 x    96 x   156        3444949647360       0.0%    100.0%      0.0%
 flops   832 x    96 x   169        3732028784640       0.0%    100.0%      0.0%
 flops    26 x    13 x   160        3805293772800       0.0%    100.0%      0.0%
 flops    13 x    26 x   160        3805293772800       0.0%    100.0%      0.0%
 flops    26 x    26 x   160        3887529984000       0.0%    100.0%      0.0%
 flops    13 x    32 x    13       23274642014208       0.0%    100.0%      0.0%
 flops    26 x    32 x    13       26713162285056       0.0%    100.0%      0.0%
 flops    13 x    32 x    26       26713162285056       0.0%    100.0%      0.0%
 flops    26 x    32 x    26       27026108448768       0.0%    100.0%      0.0%
 flops inhomo. stacks                           0       0.0%      0.0%      0.0%
 flops total                       167.704915E+12       0.0%    100.0%      0.0%
 flops max/rank                      4.767788E+12       0.0%    100.0%      0.0%
 matmuls inhomo. stacks                         0       0.0%      0.0%      0.0%
 matmuls total                         5838472576       0.0%    100.0%      0.0%
 number of processed stacks              23413608       0.0%    100.0%      0.0%
 average stack size                                     0.0     249.4       0.0
 marketing flops                   241.080658E+12
 -------------------------------------------------------------------------------
 # multiplications                          13164
 max memory usage/rank             955.101184E+06
 # max total images/rank                        5
 # max 3D layers                                1
 # MPI messages exchanged                17376480
 MPI messages size (bytes):
  total size                         5.444734E+12
  min size                           0.000000E+00
  max size                           1.277952E+06
  average size                     313.339281E+03
 MPI breakdown and total messages size (bytes):
             size <=      128              233280                        0
       128 < size <=     8192               58320                289111680
      8192 < size <=    32768             3093384              65970529488
     32768 < size <=   131072             5807016             451715579328
    131072 < size <=  4194304             8184480            4927865874432
   4194304 < size <= 16777216                   0                        0
  16777216 < size                               0                        0
 -------------------------------------------------------------------------------

 *** WARNING in dbcsr_mm.F:290 :: Using a non-square number of MPI ranks ***
 *** might lead to poor performance. Used ranks: 40 Suggested: 36 81     ***

 -------------------------------------------------------------------------------
 -                                                                             -
 -                      DBCSR MESSAGE PASSING PERFORMANCE                      -
 -                                                                             -
 -------------------------------------------------------------------------------
 ROUTINE             CALLS      AVE VOLUME [Bytes]
 MP_Bcast               89                     12.
 MP_Allreduce        67395                    180.
 MP_Alltoall         85495                 543952.
 MP_ISend           983932                 149711.
 MP_IRecv           979664                 148438.
 -------------------------------------------------------------------------------

 -------------------------------------------------------------------------------
 -                                                                             -
 -                                DBM STATISTICS                               -
 -                                                                             -
 -------------------------------------------------------------------------------
    M  x    N  x    K                                          COUNT     PERCENT
 -------------------------------------------------------------------------------

 -------------------------------------------------------------------------------
 -                                                                             -
 -                                GRID STATISTICS                              -
 -                                                                             -
 -------------------------------------------------------------------------------
 LP    KERNEL             BACKEND                              COUNT     PERCENT
 5     collocate ortho    REF                              132949440      33.83%
 5     integrate ortho    REF                               67979808      17.30%
 6     collocate ortho    REF                               63735680      16.22%
 4     collocate ortho    REF                               63260800      16.09%
 6     integrate ortho    REF                               32589376       8.29%
 4     integrate ortho    REF                               32346560       8.23%
 0     collocate general  REF                                 154880       0.04%
 0     integrate general  REF                                  30720       0.01%
 -------------------------------------------------------------------------------

 MEMORY| Estimated peak process memory [MiB]                                 912

 -------------------------------------------------------------------------------
 -                                                                             -
 -                         MESSAGE PASSING PERFORMANCE                         -
 -                                                                             -
 -------------------------------------------------------------------------------

 ROUTINE             CALLS      AVE VOLUME [Bytes]
 MP_Group               10
 MP_Bcast             3945                 155886.
 MP_Allreduce         7776                    363.
 MP_Sync               153
 MP_Alltoall         10976                7950721.
 MP_SendRecv         12768                 589824.
 MP_ISendRecv       187434                  28416.
 MP_Wait            348327
 MP_comm_split          57
 MP_ISend           148049                 227884.
 MP_IRecv           148049                 228212.
 MP_Recv              1598                 851968.
 MP_Write_All            4                 215808.
 -------------------------------------------------------------------------------


 -------------------------------------------------------------------------------
 -                                                                             -
 -                           R E F E R E N C E S                               -
 -                                                                             -
 -------------------------------------------------------------------------------
 
 CP2K version 2022.1, the CP2K developers group (2022).
 CP2K is freely available from https://www.cp2k.org/ .

 Kuehne,Thomas D.; Iannuzzi,Marcella; Del Ben,Mauro;
 Rybkin,Vladimir V.; Seewald,Patrick; Stein,Frederick; Laino,Teodoro;
 Khaliullin,Rustam Z.; Schuett,Ole; Schiffmann,Florian; Golze,Dorothea;
 Wilhelm,Jan; Chulkov,Sergey; Bani-Hashemian,Mohammad Hossein;
 Weber,Valery; Borstnik,Urban; Taillefumier,Mathieu;
 Jakobovits,Alice Shoshana; Lazzaro,Alfio; Pabst,Hans; Mueller,Tiziano;
 Schade,Robert; Guidon,Manuel; Andermatt,Samuel; Holmberg,Nico;
 Schenter,Gregory K.; Hehn,Anna; Bussy,Augustin; Belleflamme,Fabian;
 Tabacchi,Gloria; Gloess,Andreas; Lass,Michael; Bethune,Iain;
 Mundy,Christopher J.; Plessl,Christian; Watkins,Matt;
 VandeVondele,Joost; Krack,Matthias; Hutter,Juerg. 
 The Journal of Chemical Physics, 152 (19), (2020). 
 CP2K: An electronic structure and molecular dynamics software package -
 Quickstep: Efficient and accurate electronic structure calculations.
 https://doi.org/10.1063/5.0007045

 Holmberg, Nico; Laasonen, Kari. 
 The Journal of Chemical Physics, 149 (10), 104702 (2018). 
 Diabatic model for electrochemical hydrogen evolution based on
 constrained DFT
 configuration interaction.
 https://doi.org/10.1063/1.5038959

 Holmberg, N; Laasonen, K. 
 Journal of Chemical Theory and Computation, 13 (2), (2017). 
 Efficient Constrained Density Functional Theory Implementation for
 Simulation of Condensed Phase Electron Transfer Reactions.
 https://doi.org/10.1021/acs.jctc.6b01085

 Goerigk, Lars; Hansen, Andreas; Bauer, Christoph; Ehrlich, Stephan;
 Najibi, Asim; Grimme, Stefan. , 19 (48), (2017). 
 A look at the density functional theory zoo with the advanced GMTKN55 database
 for general main group thermochemistry, kinetics and noncovalent interactions.
 https://doi.org/10.1039/C7CP04913G

 Schuett, Ole; Messmer, Peter; Hutter, Juerg; VandeVondele, Joost. 
 Electronic Structure Calculations on Graphics Processing Units, John
 Wiley & Sons, Ltd, 173-190 (2016). 
 GPU-Accelerated Sparse Matrix-Matrix Multiplication for
 Linear Scaling Density Functional Theory.
 https://doi.org/10.1002/9781118670712.ch8

 Heinecke, A; Henry, G; Hutchinson, M; Pabst, H. 
 Proceedings of Intl. Supercomputing Conference, 981-991 (2016). 
 LIBXSMM: Accelerating Small Matrix Multiplications
 by Runtime Code Generation.
 https://doi.org/10.1109/SC.2016.83

 Borstnik, U; VandeVondele, J; Weber, V; Hutter, J. 
 PARALLEL COMPUTING, 40 (5-6), 47-58 (2014). 
 Sparse matrix multiplication: The distributed block-compressed sparse
 row library.
 https://doi.org/10.1016/j.parco.2014.03.012

 Hutter, J; Iannuzzi, M; Schiffmann, F; VandeVondele, J. 
 WIREs Comput Mol Sci., 4 (1), 15-25 (2014). 
 CP2K: atomistic simulations of condensed matter systems.
 https://doi.org/10.1002/wcms.1159

 Marek, A; Blum, V; Johanni, R; Havu, V; Lang, B; Auckenthaler, T;
 Heinecke, A; Bungartz, H; Lederer, H. 
 Journal of Physics: Condensed Matter, 26 (21), (2014). 
 The ELPA library: scalable parallel eigenvalue solutions for
 electronic structure
 theory and computational science.
 https://doi.org/10.1088/0953-8984/26/21/213201

 Grimme, S; Ehrlich, S; Goerigk, L. 
 JOURNAL OF COMPUTATIONAL CHEMISTRY, 32, 1456 (2011). 
 Effect of the damping function in dispersion corrected density functional theory.
 https://doi.org/10.1002/jcc.21759

 Grimme, S; Antony, J; Ehrlich, S; Krieg, H. 
 JOURNAL OF CHEMICAL PHYSICS, 132 (15), 154104 (2010). 
 A consistent and accurate ab initio parametrization of density
 functional dispersion correction (DFT-D) for the 94 elements H-Pu.
 https://doi.org/10.1063/1.3382344

 Weber, V; VandeVondele, J; Hutter, J; Niklasson, AMN. 
 JOURNAL OF CHEMICAL PHYSICS, 128 (8), 084113 (2008). 
 Direct energy functional minimization under orthogonality constraints.
 https://doi.org/10.1063/1.2841077

 VandeVondele, J; Hutter, J. 
 JOURNAL OF CHEMICAL PHYSICS, 127 (11), 114105 (2007). 
 Gaussian basis sets for accurate calculations on molecular systems in
 gas and condensed phases.
 https://doi.org/10.1063/1.2770708

 Krack, M. 
 THEORETICAL CHEMISTRY ACCOUNTS, 114 (1-3), 145-152 (2005). 
 Pseudopotentials for H to Kr optimized for gradient-corrected
 exchange-correlation functionals.
 https://doi.org/10.1007/s00214-005-0655-y

 VandeVondele, J; Krack, M; Mohamed, F; Parrinello, M; Chassaing, T;
 Hutter, J. COMPUTER PHYSICS COMMUNICATIONS, 167 (2), 103-128 (2005). 
 QUICKSTEP: Fast and accurate density functional calculations using a
 mixed Gaussian and plane waves approach.
 https://doi.org/10.1016/j.cpc.2004.12.014

 Frigo, M; Johnson, SG. 
 PROCEEDINGS OF THE IEEE, 93 (2), 216-231 (2005). 
 The design and implementation of FFTW3.
 https://doi.org/10.1109/JPROC.2004.840301

 VandeVondele, J; Hutter, J. 
 JOURNAL OF CHEMICAL PHYSICS, 118 (10), 4365-4369 (2003). 
 An efficient orbital transformation method for electronic structure
 calculations.
 https://doi.org/10.1063/1.1543154

 Hartwigsen, C; Goedecker, S; Hutter, J. 
 PHYSICAL REVIEW B, 58 (7), 3641-3662 (1998). 
 Relativistic separable dual-space Gaussian pseudopotentials from H to Rn.
 https://doi.org/10.1103/PhysRevB.58.3641

 Dudarev, SL; Botton, GA; Savrasov, SY; Humphreys, CJ; Sutton, AP. 
 PHYSICAL REVIEW B, 57 (3), 1505-1509 (1998). 
 Electron-energy-loss spectra and the structural stability of
 nickel oxide: An LSDA+U study.
 https://doi.org/10.1103/PhysRevB.57.1505

 Lippert, G; Hutter, J; Parrinello, M. 
 MOLECULAR PHYSICS, 92 (3), 477-487 (1997). 
 A hybrid Gaussian and plane wave density functional scheme.
 https://doi.org/10.1080/002689797170220

 Dudarev, SL; Manh, DN; Sutton, AP. 
 PHILOSOPHICAL MAGAZINE B, 75 (5), 613-628 (1997). 
 Effect of Mott-Hubbard correlations on the electronic
 structure and structural stability of uranium dioxide.
 https://doi.org/10.1080/13642819708202343

 Perdew, JP; Burke, K; Ernzerhof, M. 
 PHYSICAL REVIEW LETTERS, 77 (18), 3865-3868 (1996). 
 Generalized gradient approximation made simple.
 https://doi.org/10.1103/PhysRevLett.77.3865

 Goedecker, S; Teter, M; Hutter, J. 
 PHYSICAL REVIEW B, 54 (3), 1703-1710 (1996). 
 Separable dual-space Gaussian pseudopotentials.
 https://doi.org/10.1103/PhysRevB.54.1703


 -------------------------------------------------------------------------------
 -                                                                             -
 -                                T I M I N G                                  -
 -                                                                             -
 -------------------------------------------------------------------------------
 SUBROUTINE                       CALLS  ASD         SELF TIME        TOTAL TIME
                                MAXIMUM       AVERAGE  MAXIMUM  AVERAGE  MAXIMUM
 CP2K                                 1  1.0    0.076    0.084 3029.607 3029.622
 qs_energies                          2  2.0    0.005    0.005 3027.876 3027.892
 cdft_scf_loop                        2  3.0    0.001    0.001 3013.510 3013.527
 scf_env_do_scf                      12  4.0    0.003    0.008 3011.191 3011.207
 scf_env_do_scf_inner_loop          528  5.0    0.013    0.030 2890.122 2895.209
 qs_ks_update_qs_env                542  6.0    0.005    0.007 1411.622 1412.830
 rebuild_ks_matrix                  528  7.0    0.003    0.004 1410.154 1411.368
 qs_ks_build_kohn_sham_matrix       528  8.0    0.096    0.107 1410.151 1411.366
 qs_rho_update_rho_low              530  6.0    0.004    0.005 1293.677 1294.295
 calculate_rho_elec                1060  7.0    1.817    1.999 1293.673 1294.291
 grid_collocate_task_list          1060  8.0 1013.121 1057.848 1013.121 1057.848
 sum_up_and_integrate               270  9.0    6.750    7.492  625.094  625.253
 integrate_v_rspace                 542 10.0    0.024    0.032  620.653  622.142
 dbcsr_multiply_generic           13164 11.1    0.888    0.998  494.663  508.356
 plus_u                             528  9.0    0.023    0.035  505.918  506.084
 lowdin                             528 10.0    0.125    0.170  505.895  506.049
 grid_integrate_task_list           542 11.0  477.971  500.751  477.971  500.751
 multiply_cannon                  13164 12.1    1.539    2.017  379.406  404.660
 multiply_cannon_loop             13164 13.1    2.894    3.130  351.009  375.192
 density_rs2pw                     1060  8.0    0.083    0.090  258.835  300.507
 multiply_cannon_multrec         263280 14.1  247.806  281.075  247.972  281.279
 qs_scf_new_mos                     528  6.0    0.004    0.006  247.939  249.386
 qs_scf_loop_do_ot                  528  7.0    0.009    0.013  247.935  249.382
 cp_dbcsr_sm_fm_multiply           1664 10.9    0.064    0.073  238.428  239.823
 rs_pw_transfer                    8024 10.0    0.085    0.108  178.554  218.593
 ot_scf_mini                        528  8.0    0.031    0.042  213.580  214.355
 pw_transfer                      10398  9.9    0.774    1.002  206.351  208.614
 fft_wrap_pw1pw2                   9342 10.9    0.085    0.104  199.865  202.808
 qs_vxc_create                      528  9.0    0.016    0.025  194.354  194.494
 fft_wrap_pw1pw2_250               2934 11.5   22.487   24.250  187.143  190.436
 cp_gemm                           1208 10.7    0.004    0.005  187.060  187.736
 cp_gemm_fm_gemm                   1208 11.7    0.006    0.007  187.056  187.731
 cp_fm_gemm                        1208 12.7  187.050  187.725  187.050  187.725
 cp_dbcsr_sm_fm_multiply_core      1664 11.9    0.024    0.036  162.481  171.277
 fft3d_ps                          9342 12.9   89.959   92.754  142.910  146.938
 xc_vxc_pw_create                   270 10.0   15.904   19.753  134.804  134.875
 pw_nn_compose_r                   6384 12.9   90.942   96.637  112.595  134.826
 xc_rho_set_and_dset_create         528 11.0   12.462   14.415  123.983  128.340
 mp_waitall_1                   1148135 14.7   94.704  125.607   94.704  125.607
 qs_ot_get_orbitals_ref            1056  9.0    0.017    0.024  123.968  124.460
 mp_waitany                      148000 12.0   75.211  118.206   75.211  118.206
 rs_pw_transfer_RS2PW_250          1070 10.0   24.098   33.580   78.182  118.183
 init_scf_loop                       14  5.0    0.004    0.005  116.564  116.658
 potential_pw2rs                    542 11.0    0.089    0.094  112.513  114.234
 xc_pw_derive                      4788 12.0    0.026    0.035   82.024  103.509
 multiply_cannon_metrocomm3      263280 14.1    0.727    0.805   64.789   94.760
 ot_mini                            528  9.0    0.004    0.005   89.157   90.502
 mp_alltoall_d11v                 29061 13.6   65.521   85.626   65.521   85.626
 make_m2s                         26328 12.1    0.870    0.953   76.309   77.870
 cp_dbcsr_plus_fm_fm_t_native       544 11.0    0.024    0.031   75.128   77.154
 dbcsr_complete_redistribute       6701 12.6   25.773   29.419   67.209   70.975
 ot_new_cg_direction                270 10.0    0.006    0.008   69.542   69.548
 make_images                      26328 13.1    2.022    2.088   67.317   68.895
 apply_preconditioner_dbcsr         540 11.0    0.003    0.004   67.339   68.538
 apply_all                          540 12.0    0.077    0.092   67.336   68.535
 copy_dbcsr_to_fm                  2449 11.5    0.084    0.099   57.660   64.376
 -------------------------------------------------------------------------------

 The number of warnings for this run is : 87
 
 -------------------------------------------------------------------------------
  **** **** ******  **  PROGRAM ENDED AT                 2023-05-19 18:24:38.309
 ***** ** ***  *** **   PROGRAM RAN ON                                   node166
 **    ****   ******    PROGRAM RAN BY                                      wyin
 ***** **    ** ** **   PROGRAM PROCESS ID                                  2482
  **** **  *******  **  PROGRAM STOPPED IN /home/wyin/bozai/job/1-TiO2/2-slab-11
                                           0/1-pure/3-Marcus/3-Hab/t/2-40-24
