 DBCSR| CPU Multiplication driver                                           XSMM
 DBCSR| Multrec recursion limit                                              512
 DBCSR| Multiplication stack size                                           1000
 DBCSR| Maximum elements for images                                    UNLIMITED
 DBCSR| Multiplicative factor virtual images                                   1
 DBCSR| Use multiplication densification                                       T
 DBCSR| Multiplication size stacks                                             3
 DBCSR| Use memory pool for CPU allocation                                     F
 DBCSR| Number of 3D layers                                               SINGLE
 DBCSR| Use MPI memory allocation                                              F
 DBCSR| Use RMA algorithm                                                      F
 DBCSR| Use Communication thread                                               T
 DBCSR| Communication thread load                                             87
 DBCSR| MPI: My node id                                                        0
 DBCSR| MPI: Number of nodes                                                  40
 DBCSR| OMP: Current number of threads                                         1
 DBCSR| OMP: Max number of threads                                             1
 DBCSR| Split modifier for TAS multiplication algorithm                  1.0E+00


  **** **** ******  **  PROGRAM STARTED AT               2023-05-20 15:53:36.674
 ***** ** ***  *** **   PROGRAM STARTED ON                                node10
 **    ****   ******    PROGRAM STARTED BY                                  wyin
 ***** **    ** ** **   PROGRAM PROCESS ID                                  1906
  **** **  *******  **  PROGRAM STARTED IN /home/wyin/bozai/job/1-TiO2/2-slab-11
                                           0/2-slab+H2O/1-1H2O/4-Marcus/3-Hab/2-
                                           40-24

 CP2K| version string:                                       CP2K version 2022.1
 CP2K| source code revision number:                                  git:2caeb6f
 CP2K| cp2kflags: omp libint fftw3 libxc elpa parallel mpi3 scalapack xsmm plume
 CP2K|            d2 spglib mkl libvori libbqb
 CP2K| is freely available from                            https://www.cp2k.org/
 CP2K| Program compiled at                          Mon Mar 13 16:18:57 CET 2023
 CP2K| Program compiled on                                               login02
 CP2K| Program compiled for                                                local
 CP2K| Data directory path                   /home/wyin/package/cp2k-2022.1/data
 CP2K| Input file name                                                 input.inp
 
 GLOBAL| Force Environment number                                              1
 GLOBAL| Basis set file name                                           BASIS_SET
 GLOBAL| Potential file name                                           POTENTIAL
 GLOBAL| MM Potential file name                                     MM_POTENTIAL
 GLOBAL| Coordinate file name                                      slab+1H2O.xyz
 GLOBAL| Force Environment number                                              2
 GLOBAL| Basis set file name            /home/wyin/bozai/Bootstrap/BASIS_SET/BAS
 GLOBAL| Potential file name            /home/wyin/bozai/Bootstrap/BASIS_SET/GTH
 GLOBAL| MM Potential file name                                     MM_POTENTIAL
 GLOBAL| Coordinate file name                                      __STD_INPUT__
 GLOBAL| Force Environment number                                              3
 GLOBAL| Basis set file name            /home/wyin/bozai/Bootstrap/BASIS_SET/BAS
 GLOBAL| Potential file name            /home/wyin/bozai/Bootstrap/BASIS_SET/GTH
 GLOBAL| MM Potential file name                                     MM_POTENTIAL
 GLOBAL| Coordinate file name                                      __STD_INPUT__
 GLOBAL| Method name                                                        CP2K
 GLOBAL| Project name                                                    PROJECT
 GLOBAL| Run type                                                         ENERGY
 GLOBAL| FFT library                                                       FFTW3
 GLOBAL| Diagonalization library                                            ELPA
 GLOBAL| Minimum number of eigenvectors for ELPA usage                        16
 GLOBAL| Orthonormality check for eigenvectors                          DISABLED
 GLOBAL| Matrix multiplication library                                 ScaLAPACK
 GLOBAL| All-to-all communication in single precision                          F
 GLOBAL| FFTs using library dependent lengths                                  F
 GLOBAL| Grid backend                                                       AUTO
 GLOBAL| Global print level                                               MEDIUM
 GLOBAL| MPI I/O enabled                                                       T
 GLOBAL| Total number of message passing processes                            40
 GLOBAL| Number of threads for this process                                    1
 GLOBAL| This output is from process                                           0
 GLOBAL| Stack size for threads created by OpenMP (OMP_STACKSIZE)        default
 GLOBAL| CPU model name                Intel(R) Xeon(R) CPU E5-2640 v4 @ 2.40GHz
 GLOBAL| CPUID                                                              1002
 GLOBAL| Compiled for CPUID                                                 1001

 *** HINT in environment.F:869 :: The compiler target flags (x86_avx) used ***
 *** to build this binary cannot exploit all extensions of this CPU model  ***
 *** (x86_avx2). Consider compiler target flags as part of FCFLAGS and     ***
 *** CFLAGS (ARCH file).                                                   ***


 MEMORY| system memory details [Kb]
 MEMORY|                        rank 0           min           max       average
 MEMORY| MemTotal            131745360     131745360     131745444     131745402
 MEMORY| MemFree             126812372     126812372     126840324     126826348
 MEMORY| Buffers                 17856         17432         17856         17644
 MEMORY| Cached                 349644        335552        349644        342598
 MEMORY| Slab                   132256        132192        132256        132224
 MEMORY| SReclaimable            43036         42984         43036         43010
 MEMORY| MemLikelyFree       127222908     127222908     127236292     127229600


 *** Fundamental physical constants (SI units) ***

 *** Literature: B. J. Mohr and B. N. Taylor,
 ***             CODATA recommended values of the fundamental physical
 ***             constants: 2006, Web Version 5.1
 ***             http://physics.nist.gov/constants

 Speed of light in vacuum [m/s]                             2.99792458000000E+08
 Magnetic constant or permeability of vacuum [N/A**2]       1.25663706143592E-06
 Electric constant or permittivity of vacuum [F/m]          8.85418781762039E-12
 Planck constant (h) [J*s]                                  6.62606896000000E-34
 Planck constant (h-bar) [J*s]                              1.05457162825177E-34
 Elementary charge [C]                                      1.60217648700000E-19
 Electron mass [kg]                                         9.10938215000000E-31
 Electron g factor [ ]                                     -2.00231930436220E+00
 Proton mass [kg]                                           1.67262163700000E-27
 Fine-structure constant                                    7.29735253760000E-03
 Rydberg constant [1/m]                                     1.09737315685270E+07
 Avogadro constant [1/mol]                                  6.02214179000000E+23
 Boltzmann constant [J/K]                                   1.38065040000000E-23
 Atomic mass unit [kg]                                      1.66053878200000E-27
 Bohr radius [m]                                            5.29177208590000E-11

 *** Conversion factors ***

 [u] -> [a.u.]                                              1.82288848426455E+03
 [Angstrom] -> [Bohr] = [a.u.]                              1.88972613288564E+00
 [a.u.] = [Bohr] -> [Angstrom]                              5.29177208590000E-01
 [a.u.] -> [s]                                              2.41888432650478E-17
 [a.u.] -> [fs]                                             2.41888432650478E-02
 [a.u.] -> [J]                                              4.35974393937059E-18
 [a.u.] -> [N]                                              8.23872205491840E-08
 [a.u.] -> [K]                                              3.15774647902944E+05
 [a.u.] -> [kJ/mol]                                         2.62549961709828E+03
 [a.u.] -> [kcal/mol]                                       6.27509468713739E+02
 [a.u.] -> [Pa]                                             2.94210107994716E+13
 [a.u.] -> [bar]                                            2.94210107994716E+08
 [a.u.] -> [atm]                                            2.90362800883016E+08
 [a.u.] -> [eV]                                             2.72113838565563E+01
 [a.u.] -> [Hz]                                             6.57968392072181E+15
 [a.u.] -> [1/cm] (wave numbers)                            2.19474631370540E+05
 [a.u./Bohr**2] -> [1/cm]                                   5.14048714338585E+03
 
 MIXED_ENV| Number of created MPI groups:                                      1
 MIXED_ENV| Task to group correspondence:
  (   0 :    0)  (   1 :    0)  (   2 :    0)  (   3 :    0)
  (   4 :    0)  (   5 :    0)  (   6 :    0)  (   7 :    0)
  (   8 :    0)  (   9 :    0)  (  10 :    0)  (  11 :    0)
  (  12 :    0)  (  13 :    0)  (  14 :    0)  (  15 :    0)
  (  16 :    0)  (  17 :    0)  (  18 :    0)  (  19 :    0)
  (  20 :    0)  (  21 :    0)  (  22 :    0)  (  23 :    0)
  (  24 :    0)  (  25 :    0)  (  26 :    0)  (  27 :    0)
  (  28 :    0)  (  29 :    0)  (  30 :    0)  (  31 :    0)
  (  32 :    0)  (  33 :    0)  (  34 :    0)  (  35 :    0)
  (  36 :    0)  (  37 :    0)  (  38 :    0)  (  39 :    0)

 CELL_TOP| Volume [angstrom^3]:                                      3844.865420
 CELL_TOP| Vector a [angstrom    12.994     0.000     0.000   |a| =    12.993800
 CELL_TOP| Vector b [angstrom     0.000    11.836     0.000   |b| =    11.836000
 CELL_TOP| Vector c [angstrom     0.000     0.000    25.000   |c| =    25.000000
 CELL_TOP| Angle (b,c), alpha [degree]:                                90.000000
 CELL_TOP| Angle (a,c), beta  [degree]:                                90.000000
 CELL_TOP| Angle (a,b), gamma [degree]:                                90.000000
 CELL_TOP| Numerically orthorhombic:                                         YES
 
 GENERATE|  Preliminary Number of Bonds generated:                             0
 GENERATE|  Achieved consistency in connectivity generation.

 CELL| Volume [angstrom^3]:                                          3844.865420
 CELL| Vector a [angstrom]:      12.994     0.000     0.000   |a| =    12.993800
 CELL| Vector b [angstrom]:       0.000    11.836     0.000   |b| =    11.836000
 CELL| Vector c [angstrom]:       0.000     0.000    25.000   |c| =    25.000000
 CELL| Angle (b,c), alpha [degree]:                                    90.000000
 CELL| Angle (a,c), beta  [degree]:                                    90.000000
 CELL| Angle (a,b), gamma [degree]:                                    90.000000
 CELL| Numerically orthorhombic:                                             YES

 CELL_REF| Volume [angstrom^3]:                                      3844.865420
 CELL_REF| Vector a [angstrom    12.994     0.000     0.000   |a| =    12.993800
 CELL_REF| Vector b [angstrom     0.000    11.836     0.000   |b| =    11.836000
 CELL_REF| Vector c [angstrom     0.000     0.000    25.000   |c| =    25.000000
 CELL_REF| Angle (b,c), alpha [degree]:                                90.000000
 CELL_REF| Angle (a,c), beta  [degree]:                                90.000000
 CELL_REF| Angle (a,b), gamma [degree]:                                90.000000
 CELL_REF| Numerically orthorhombic:                                         YES


 MOLECULE KIND INFORMATION


 All atoms are their own molecule, skipping detailed information
 
 MIXED_CDFT| Activating mixed CDFT calculation
 MIXED_CDFT| Number of CDFT states:                                            2
 MIXED_CDFT| CDFT states calculation mode: serial
 MIXED_CDFT| The constraints are separately built for all CDFT states
 MIXED_CDFT| Calculating electronic coupling between states:                   T
 MIXED_CDFT| Calculating electronic coupling reliability metric:               F
 MIXED_CDFT| Configuration interaction (CDFT-CI) was requested:                F
 MIXED_CDFT| Block diagonalizing the mixed CDFT Hamiltonian:                   F
 MIXED_CDFT| Matrix inversions calculated with LU decomposition.

  ------------------------- CDFT coupling information --------------------------
  Information at step (fs):                                                 0.00

  ############################################
  ###### CDFT states I =  1 and J =   2 ######
  ############################################
  Atomic group:                                                                1
  Strength of constraint I:                                      -0.050035833473
  Strength of constraint J:                                      -0.049685683726
  Final value of constraint I:                                    0.999446835001
  Final value of constraint J:                                    0.999492297321

  Overlap between states I and J:                                 0.347846320301
  Charge transfer energy (J-I) (Hartree):                        -0.000306677823
 
  Diabatic electronic coupling (Lowdin, mHartree):                9.395422295711
  ------------------------------------------------------------------------------
 NO FORCE_EVAL section calculated the dipole

 ENERGY| Total FORCE_EVAL ( MIXED ) energy [a.u.]:         -5793.061062794477948

 -------------------------------------------------------------------------------
 -                                                                             -
 -                                DBCSR STATISTICS                             -
 -                                                                             -
 -------------------------------------------------------------------------------
 COUNTER                                    TOTAL       BLAS       SMM       ACC
 flops     5 x     4 x     5               683200       0.0%    100.0%      0.0%
 flops     5 x     5 x     5               852000       0.0%    100.0%      0.0%
 flops     5 x     5 x    36              2797200       0.0%    100.0%      0.0%
 flops     5 x     5 x    37              2874900       0.0%    100.0%      0.0%
 flops     5 x    23 x     5              5961600       0.0%    100.0%      0.0%
 flops     5 x     5 x   183             14493600       0.0%    100.0%      0.0%
 flops     5 x     5 x    64             39782400       0.0%    100.0%      0.0%
 flops     5 x     5 x   192             60825600       0.0%    100.0%      0.0%
 flops   855 x    68 x   183             63837720       0.0%    100.0%      0.0%
 flops   855 x    69 x   183             64776510       0.0%    100.0%      0.0%
 flops     5 x     5 x    32             74592000       0.0%    100.0%      0.0%
 flops    13 x     4 x     5             87483760       0.0%    100.0%      0.0%
 flops     5 x     4 x    13             87483760       0.0%    100.0%      0.0%
 flops    13 x     5 x     5            109098600       0.0%    100.0%      0.0%
 flops     5 x     5 x    13            109098600       0.0%    100.0%      0.0%
 flops    26 x     4 x     5            113684480       0.0%    100.0%      0.0%
 flops     5 x     4 x    26            113684480       0.0%    100.0%      0.0%
 flops    26 x     5 x     5            141772800       0.0%    100.0%      0.0%
 flops     5 x     5 x    26            141772800       0.0%    100.0%      0.0%
 flops   832 x    68 x   183            186361344       0.0%    100.0%      0.0%
 flops   832 x    69 x   183            189101952       0.0%    100.0%      0.0%
 flops     5 x     5 x   160            190080000       0.0%    100.0%      0.0%
 flops    13 x     5 x    36            235151280       0.0%    100.0%      0.0%
 flops    13 x     5 x    37            241683260       0.0%    100.0%      0.0%
 flops     5 x    13 x    36            242424000       0.0%    100.0%      0.0%
 flops     5 x    13 x    37            249158000       0.0%    100.0%      0.0%
 flops   855 x    68 x   192            267909120       0.0%    100.0%      0.0%
 flops   855 x    69 x   192            271848960       0.0%    100.0%      0.0%
 flops    26 x     5 x    36            310302720       0.0%    100.0%      0.0%
 flops     5 x    26 x    36            310302720       0.0%    100.0%      0.0%
 flops    26 x     5 x    37            318922240       0.0%    100.0%      0.0%
 flops     5 x    26 x    37            318922240       0.0%    100.0%      0.0%
 flops   855 x    64 x   183            600825600       0.0%    100.0%      0.0%
 flops    13 x    23 x     5            607878960       0.0%    100.0%      0.0%
 flops     5 x    23 x    13            607878960       0.0%    100.0%      0.0%
 flops   855 x    96 x   183            720990720       0.0%    100.0%      0.0%
 flops   832 x    68 x   192            782106624       0.0%    100.0%      0.0%
 flops    26 x    23 x     5            789934080       0.0%    100.0%      0.0%
 flops     5 x    23 x    26            789934080       0.0%    100.0%      0.0%
 flops   832 x    69 x   192            793608192       0.0%    100.0%      0.0%
 flops   855 x    68 x   160            837216000       0.0%    100.0%      0.0%
 flops   855 x    69 x   160            849528000       0.0%    100.0%      0.0%
 flops     5 x    32 x     5           1124659200       0.0%    100.0%      0.0%
 flops    13 x     5 x   183           1218428640       0.0%    100.0%      0.0%
 flops     5 x    13 x   183           1256112000       0.0%    100.0%      0.0%
 flops   196 x    68 x    36           1602558720       0.0%    100.0%      0.0%
 flops    26 x     5 x   183           1607823360       0.0%    100.0%      0.0%
 flops     5 x    26 x   183           1607823360       0.0%    100.0%      0.0%
 flops   197 x    69 x    37           1750234680       0.0%    100.0%      0.0%
 flops   832 x    64 x   183           1753989120       0.0%    100.0%      0.0%
 flops   832 x    96 x   183           2104786944       0.0%    100.0%      0.0%
 flops   832 x    68 x   160           2444083200       0.0%    100.0%      0.0%
 flops   832 x    69 x   160           2480025600       0.0%    100.0%      0.0%
 flops   855 x    64 x   192           2521497600       0.0%    100.0%      0.0%
 flops   855 x    96 x   192           3025797120       0.0%    100.0%      0.0%
 flops    13 x     5 x    64           3344373760       0.0%    100.0%      0.0%
 flops     5 x    13 x    64           3447808000       0.0%    100.0%      0.0%
 flops   832 x    68 x    36           3902386176       0.0%    100.0%      0.0%
 flops   845 x    68 x    36           3963360960       0.0%    100.0%      0.0%
 flops   832 x    69 x    37           4108001664       0.0%    100.0%      0.0%
 flops   845 x    69 x    37           4172189190       0.0%    100.0%      0.0%
 flops    26 x     5 x    64           4413194240       0.0%    100.0%      0.0%
 flops     5 x    26 x    64           4413194240       0.0%    100.0%      0.0%
 flops   192 x    68 x    36           4709560320       0.0%    100.0%      0.0%
 flops    13 x     5 x   192           5113405440       0.0%    100.0%      0.0%
 flops   192 x    69 x    37           5117437440       0.0%    100.0%      0.0%
 flops     5 x    13 x   192           5271552000       0.0%    100.0%      0.0%
 flops    13 x     5 x    32           6270700800       0.0%    100.0%      0.0%
 flops     5 x    13 x    32           6464640000       0.0%    100.0%      0.0%
 flops    26 x     5 x   192           6747586560       0.0%    100.0%      0.0%
 flops     5 x    26 x   192           6747586560       0.0%    100.0%      0.0%
 flops   832 x    64 x   192           7361003520       0.0%    100.0%      0.0%
 flops   196 x    64 x    36           7541452800       0.0%    100.0%      0.0%
 flops   837 x    68 x    36           7851676032       0.0%    100.0%      0.0%
 flops   855 x    64 x   160           7879680000       0.0%    100.0%      0.0%
 flops   197 x    64 x    37           8117030400       0.0%    100.0%      0.0%
 flops   837 x    69 x    37           8265378348       0.0%    100.0%      0.0%
 flops    26 x     5 x    32           8274739200       0.0%    100.0%      0.0%
 flops     5 x    26 x    32           8274739200       0.0%    100.0%      0.0%
 flops   832 x    96 x   192           8833204224       0.0%    100.0%      0.0%
 flops   196 x    96 x    36           9049743360       0.0%    100.0%      0.0%
 flops   855 x    96 x   160           9455616000       0.0%    100.0%      0.0%
 flops   197 x    96 x    37           9740436480       0.0%    100.0%      0.0%
 flops   196 x    68 x    64          11395973120       0.0%    100.0%      0.0%
 flops   197 x    69 x    64          12109731840       0.0%    100.0%      0.0%
 flops   196 x    68 x   182          15679698944       0.0%    100.0%      0.0%
 flops    13 x     5 x   160          15979392000       0.0%    100.0%      0.0%
 flops   197 x    69 x   182          15991457664       0.0%    100.0%      0.0%
 flops     5 x    13 x   160          16473600000       0.0%    100.0%      0.0%
 flops    13 x     4 x    13          16488956848       0.0%    100.0%      0.0%
 flops   196 x    68 x   156          16799677440       0.0%    100.0%      0.0%
 flops   197 x    69 x   156          17133704640       0.0%    100.0%      0.0%
 flops   832 x    64 x    36          18364170240       0.0%    100.0%      0.0%
 flops   845 x    64 x    36          18651110400       0.0%    100.0%      0.0%
 flops    26 x     4 x    26          18917097472       0.0%    100.0%      0.0%
 flops    26 x     4 x    13          18942498848       0.0%    100.0%      0.0%
 flops    13 x     4 x    26          18942498848       0.0%    100.0%      0.0%
 flops   832 x    64 x    37          19051601920       0.0%    100.0%      0.0%
 flops   845 x    64 x    37          19349283200       0.0%    100.0%      0.0%
 flops    13 x     5 x    13          20562926280       0.0%    100.0%      0.0%
 flops    26 x     5 x   160          21086208000       0.0%    100.0%      0.0%
 flops     5 x    26 x   160          21086208000       0.0%    100.0%      0.0%
 flops   196 x    68 x    32          21367449600       0.0%    100.0%      0.0%
 flops   832 x    96 x    36          22037004288       0.0%    100.0%      0.0%
 flops   192 x    64 x    36          22162636800       0.0%    100.0%      0.0%
 flops   845 x    96 x    36          22381332480       0.0%    100.0%      0.0%
 flops   197 x    69 x    32          22705747200       0.0%    100.0%      0.0%
 flops   832 x    96 x    37          22861922304       0.0%    100.0%      0.0%
 flops   832 x    64 x   160          23003136000       0.0%    100.0%      0.0%
 flops   845 x    96 x    37          23219139840       0.0%    100.0%      0.0%
 flops    26 x     5 x    26          23590993920       0.0%    100.0%      0.0%
 flops    26 x     5 x    13          23622671280       0.0%    100.0%      0.0%
 flops    13 x     5 x    26          23622671280       0.0%    100.0%      0.0%
 flops   192 x    64 x    37          23733043200       0.0%    100.0%      0.0%
 flops   192 x    96 x    36          26595164160       0.0%    100.0%      0.0%
 flops   832 x    96 x   160          27603763200       0.0%    100.0%      0.0%
 flops   832 x    68 x    64          27750301696       0.0%    100.0%      0.0%
 flops   845 x    68 x    64          28183900160       0.0%    100.0%      0.0%
 flops   832 x    69 x    64          28422930432       0.0%    100.0%      0.0%
 flops   192 x    96 x    37          28479651840       0.0%    100.0%      0.0%
 flops   845 x    69 x    64          28867038720       0.0%    100.0%      0.0%
 flops   196 x    68 x   169          32759371008       0.0%    100.0%      0.0%
 flops   197 x    69 x   169          33410724048       0.0%    100.0%      0.0%
 flops   192 x    68 x    64          33490206720       0.0%    100.0%      0.0%
 flops   192 x    69 x    64          35407134720       0.0%    100.0%      0.0%
 flops   837 x    64 x    36          36949063680       0.0%    100.0%      0.0%
 flops   837 x    64 x    37          38332189440       0.0%    100.0%      0.0%
 flops   832 x    68 x   182          43493818368       0.0%    100.0%      0.0%
 flops   832 x    69 x   182          44133433344       0.0%    100.0%      0.0%
 flops   845 x    68 x   182          44173409280       0.0%    100.0%      0.0%
 flops   837 x    96 x    36          44338876416       0.0%    100.0%      0.0%
 flops   845 x    69 x   182          44823018240       0.0%    100.0%      0.0%
 flops    13 x    13 x    36          45413287920       0.0%    100.0%      0.0%
 flops   837 x    96 x    37          45998627328       0.0%    100.0%      0.0%
 flops   192 x    68 x   182          46079115264       0.0%    100.0%      0.0%
 flops   832 x    68 x   156          46600519680       0.0%    100.0%      0.0%
 flops    13 x    13 x    37          46674768140       0.0%    100.0%      0.0%
 flops   192 x    69 x   182          46756749312       0.0%    100.0%      0.0%
 flops   832 x    69 x   156          47285821440       0.0%    100.0%      0.0%
 flops   845 x    68 x   156          47328652800       0.0%    100.0%      0.0%
 flops   845 x    69 x   156          48024662400       0.0%    100.0%      0.0%
 flops   192 x    68 x   156          49370480640       0.0%    100.0%      0.0%
 flops   192 x    69 x   156          50096517120       0.0%    100.0%      0.0%
 flops    26 x    13 x    36          51672190752       0.0%    100.0%      0.0%
 flops    13 x    26 x    36          51735220992       0.0%    100.0%      0.0%
 flops   832 x    68 x    32          52031815680       0.0%    100.0%      0.0%
 flops    26 x    26 x    36          52441159680       0.0%    100.0%      0.0%
 flops   845 x    68 x    32          52844812800       0.0%    100.0%      0.0%
 flops    26 x    13 x    37          53107529384       0.0%    100.0%      0.0%
 flops    13 x    26 x    37          53172310464       0.0%    100.0%      0.0%
 flops   832 x    69 x    32          53292994560       0.0%    100.0%      0.0%
 flops   196 x    64 x    64          53628108800       0.0%    100.0%      0.0%
 flops    26 x    26 x    37          53897858560       0.0%    100.0%      0.0%
 flops   845 x    69 x    32          54125697600       0.0%    100.0%      0.0%
 flops   837 x    68 x    64          55834140672       0.0%    100.0%      0.0%
 flops   197 x    64 x    64          56161075200       0.0%    100.0%      0.0%
 flops   837 x    69 x    64          57187482624       0.0%    100.0%      0.0%
 flops   192 x    68 x    32          62794137600       0.0%    100.0%      0.0%
 flops   196 x    96 x    64          64353730560       0.0%    100.0%      0.0%
 flops   192 x    69 x    32          66388377600       0.0%    100.0%      0.0%
 flops   197 x    96 x    64          67393290240       0.0%    100.0%      0.0%
 flops   196 x    64 x   182          73786818560       0.0%    100.0%      0.0%
 flops   197 x    64 x   182          74163281920       0.0%    100.0%      0.0%
 flops   196 x    64 x   156          79057305600       0.0%    100.0%      0.0%
 flops   197 x    64 x   156          79460659200       0.0%    100.0%      0.0%
 flops   837 x    68 x   182          87510398976       0.0%    100.0%      0.0%
 flops   196 x    96 x   182          88544182272       0.0%    100.0%      0.0%
 flops   837 x    69 x   182          88797316608       0.0%    100.0%      0.0%
 flops   197 x    96 x   182          88995938304       0.0%    100.0%      0.0%
 flops   832 x    68 x   169          90871013376       0.0%    100.0%      0.0%
 flops   832 x    69 x   169          92207351808       0.0%    100.0%      0.0%
 flops   845 x    68 x   169          92290872960       0.0%    100.0%      0.0%
 flops   845 x    69 x   169          93648091680       0.0%    100.0%      0.0%
 flops   837 x    68 x   156          93761141760       0.0%    100.0%      0.0%
 flops   196 x    96 x   156          94868766720       0.0%    100.0%      0.0%
 flops   837 x    69 x   156          95139982080       0.0%    100.0%      0.0%
 flops   197 x    96 x   156          95352791040       0.0%    100.0%      0.0%
 flops   192 x    68 x   169          96272437248       0.0%    100.0%      0.0%
 flops   192 x    69 x   169          97688208384       0.0%    100.0%      0.0%
 flops   196 x    64 x    32         100552704000       0.0%    100.0%      0.0%
 flops   837 x    68 x    32         104689013760       0.0%    100.0%      0.0%
 flops   197 x    64 x    32         105302016000       0.0%    100.0%      0.0%
 flops   837 x    69 x    32         107226529920       0.0%    100.0%      0.0%
 flops    13 x    23 x    13         115102652496       0.0%    100.0%      0.0%
 flops   196 x    96 x    32         120663244800       0.0%    100.0%      0.0%
 flops    13 x    32 x     5         121511869440       0.0%    100.0%      0.0%
 flops     5 x    32 x    13         121511869440       0.0%    100.0%      0.0%
 flops   197 x    96 x    32         126362419200       0.0%    100.0%      0.0%
 flops    26 x    23 x    13         131621531808       0.0%    100.0%      0.0%
 flops    13 x    23 x    26         131621531808       0.0%    100.0%      0.0%
 flops    26 x    23 x    26         132495826944       0.0%    100.0%      0.0%
 flops   196 x    64 x   169         154161745920       0.0%    100.0%      0.0%
 flops   197 x    64 x   169         154948285440       0.0%    100.0%      0.0%
 flops    26 x    32 x     5         157903749120       0.0%    100.0%      0.0%
 flops     5 x    32 x    26         157903749120       0.0%    100.0%      0.0%
 flops   837 x    68 x   169         182834226432       0.0%    100.0%      0.0%
 flops   196 x    96 x   169         184994095104       0.0%    100.0%      0.0%
 flops   837 x    69 x   169         185522965056       0.0%    100.0%      0.0%
 flops   197 x    96 x   169         185937942528       0.0%    100.0%      0.0%
 flops    13 x    13 x   183         235307460960       0.0%    100.0%      0.0%
 flops   832 x    64 x    64         262406144000       0.0%    100.0%      0.0%
 flops   845 x    64 x    64         266506240000       0.0%    100.0%      0.0%
 flops    26 x    13 x   183         267737760576       0.0%    100.0%      0.0%
 flops    13 x    26 x   183         268064349696       0.0%    100.0%      0.0%
 flops    26 x    26 x   183         271722147840       0.0%    100.0%      0.0%
 flops   832 x    96 x    64         314887372800       0.0%    100.0%      0.0%
 flops   845 x    96 x    64         319807488000       0.0%    100.0%      0.0%
 flops   192 x    64 x    64         321807974400       0.0%    100.0%      0.0%
 flops   192 x    96 x    64         386169569280       0.0%    100.0%      0.0%
 flops   832 x    64 x   182         409353584640       0.0%    100.0%      0.0%
 flops   845 x    64 x   182         415749734400       0.0%    100.0%      0.0%
 flops   192 x    64 x   182         433685790720       0.0%    100.0%      0.0%
 flops   832 x    64 x   156         438593126400       0.0%    100.0%      0.0%
 flops   845 x    64 x   156         445446144000       0.0%    100.0%      0.0%
 flops   192 x    64 x   156         464663347200       0.0%    100.0%      0.0%
 flops   832 x    96 x   182         491224301568       0.0%    100.0%      0.0%
 flops   832 x    64 x    32         492011520000       0.0%    100.0%      0.0%
 flops   845 x    96 x   182         498899681280       0.0%    100.0%      0.0%
 flops   845 x    64 x    32         499699200000       0.0%    100.0%      0.0%
 flops   192 x    96 x   182         520422948864       0.0%    100.0%      0.0%
 flops   832 x    96 x   156         526311751680       0.0%    100.0%      0.0%
 flops   837 x    64 x    64         527966208000       0.0%    100.0%      0.0%
 flops   845 x    96 x   156         534535372800       0.0%    100.0%      0.0%
 flops   192 x    96 x   156         557596016640       0.0%    100.0%      0.0%
 flops   832 x    96 x    32         590413824000       0.0%    100.0%      0.0%
 flops   845 x    96 x    32         599639040000       0.0%    100.0%      0.0%
 flops   192 x    64 x    32         603389952000       0.0%    100.0%      0.0%
 flops   837 x    96 x    64         633559449600       0.0%    100.0%      0.0%
 flops    13 x    13 x    64         645877872640       0.0%    100.0%      0.0%
 flops   192 x    96 x    32         724067942400       0.0%    100.0%      0.0%
 flops    26 x    13 x    64         734893379584       0.0%    100.0%      0.0%
 flops    13 x    26 x    64         735789809664       0.0%    100.0%      0.0%
 flops    26 x    26 x    64         745829826560       0.0%    100.0%      0.0%
 flops   837 x    64 x   182         823627284480       0.0%    100.0%      0.0%
 flops   832 x    64 x   169         855256596480       0.0%    100.0%      0.0%
 flops   845 x    64 x   169         868619980800       0.0%    100.0%      0.0%
 flops   837 x    64 x   156         882457804800       0.0%    100.0%      0.0%
 flops   192 x    64 x   169         906093527040       0.0%    100.0%      0.0%
 flops    13 x    13 x   192         987519836160       0.0%    100.0%      0.0%
 flops   837 x    96 x   182         988352741376       0.0%    100.0%      0.0%
 flops   837 x    64 x    32         989936640000       0.0%    100.0%      0.0%
 flops   832 x    96 x   169        1026307915776       0.0%    100.0%      0.0%
 flops   845 x    96 x   169        1042343976960       0.0%    100.0%      0.0%
 flops   837 x    96 x   156        1058949365760       0.0%    100.0%      0.0%
 flops   192 x    96 x   169        1087312232448       0.0%    100.0%      0.0%
 flops    26 x    13 x   192        1123620765696       0.0%    100.0%      0.0%
 flops    13 x    26 x   192        1124991369216       0.0%    100.0%      0.0%
 flops    26 x    26 x   192        1140342128640       0.0%    100.0%      0.0%
 flops   837 x    96 x    32        1187923968000       0.0%    100.0%      0.0%
 flops    13 x    13 x    32        1211021011200       0.0%    100.0%      0.0%
 flops    26 x    13 x    32        1377925086720       0.0%    100.0%      0.0%
 flops    13 x    26 x    32        1379605893120       0.0%    100.0%      0.0%
 flops    26 x    26 x    32        1398430924800       0.0%    100.0%      0.0%
 flops   837 x    64 x   169        1720792719360       0.0%    100.0%      0.0%
 flops   837 x    96 x   169        2064951263232       0.0%    100.0%      0.0%
 flops    13 x    13 x   160        3085999488000       0.0%    100.0%      0.0%
 flops    26 x    13 x   160        3511314892800       0.0%    100.0%      0.0%
 flops    13 x    26 x   160        3515598028800       0.0%    100.0%      0.0%
 flops    26 x    26 x   160        3563569152000       0.0%    100.0%      0.0%
 flops    13 x    32 x    13       22979198561280       0.0%    100.0%      0.0%
 flops    26 x    32 x    13       26310465472512       0.0%    100.0%      0.0%
 flops    13 x    32 x    26       26310465472512       0.0%    100.0%      0.0%
 flops    26 x    32 x    26       26427229470720       0.0%    100.0%      0.0%
 flops inhomo. stacks               2692122352192     100.0%      0.0%      0.0%
 flops total                       167.193183E+12       1.6%     98.4%      0.0%
 flops max/rank                      4.754262E+12       1.8%     98.2%      0.0%
 matmuls inhomo. stacks                    213760     100.0%      0.0%      0.0%
 matmuls total                         5925847050       0.0%    100.0%      0.0%
 number of processed stacks              28399960       0.8%     99.2%      0.0%
 average stack size                                     1.0     210.2       0.0
 marketing flops                   240.447604E+12
 -------------------------------------------------------------------------------
 # multiplications                          12843
 max memory usage/rank             953.118720E+06
 # max total images/rank                        5
 # max 3D layers                                1
 # MPI messages exchanged                16952760
 MPI messages size (bytes):
  total size                         5.388009E+12
  min size                           0.000000E+00
  max size                           1.313280E+06
  average size                     317.824875E+03
 MPI breakdown and total messages size (bytes):
             size <=      128              232848                        0
       128 < size <=     8192               52272                282686976
      8192 < size <=    32768             2975940              63770495496
     32768 < size <=   131072             5692476             447327726120
    131072 < size <=  4194304             7999224            4878494163288
   4194304 < size <= 16777216                   0                        0
  16777216 < size                               0                        0
 -------------------------------------------------------------------------------

 *** WARNING in dbcsr_mm.F:290 :: Using a non-square number of MPI ranks ***
 *** might lead to poor performance. Used ranks: 40 Suggested: 36 81     ***

 -------------------------------------------------------------------------------
 -                                                                             -
 -                      DBCSR MESSAGE PASSING PERFORMANCE                      -
 -                                                                             -
 -------------------------------------------------------------------------------
 ROUTINE             CALLS      AVE VOLUME [Bytes]
 MP_Bcast              264                     12.
 MP_Allreduce        66080                    180.
 MP_Alltoall         83821                 549262.
 MP_ISend           960028                 154368.
 MP_IRecv           949292                 153687.
 -------------------------------------------------------------------------------

 -------------------------------------------------------------------------------
 -                                                                             -
 -                                DBM STATISTICS                               -
 -                                                                             -
 -------------------------------------------------------------------------------
    M  x    N  x    K                                          COUNT     PERCENT
 -------------------------------------------------------------------------------

 -------------------------------------------------------------------------------
 -                                                                             -
 -                                GRID STATISTICS                              -
 -                                                                             -
 -------------------------------------------------------------------------------
 LP    KERNEL             BACKEND                              COUNT     PERCENT
 5     collocate ortho    REF                              130801216      33.36%
 5     integrate ortho    REF                               66915680      17.07%
 4     collocate ortho    REF                               64356320      16.41%
 6     collocate ortho    REF                               62320580      15.89%
 4     integrate ortho    REF                               32923600       8.40%
 6     integrate ortho    REF                               31882150       8.13%
 3     collocate ortho    REF                                1690752       0.43%
 3     integrate ortho    REF                                 864960       0.22%
 0     collocate general  REF                                 157280       0.04%
 2     collocate ortho    REF                                  88060       0.02%
 2     integrate ortho    REF                                  45050       0.01%
 0     integrate general  REF                                  31200       0.01%
 -------------------------------------------------------------------------------

 MEMORY| Estimated peak process memory [MiB]                                 904

 -------------------------------------------------------------------------------
 -                                                                             -
 -                         MESSAGE PASSING PERFORMANCE                         -
 -                                                                             -
 -------------------------------------------------------------------------------

 ROUTINE             CALLS      AVE VOLUME [Bytes]
 MP_Group               10
 MP_Bcast             3984                 216639.
 MP_Allreduce         7668                    368.
 MP_Sync               153
 MP_Alltoall         10730                8016524.
 MP_SendRecv         12480                 589824.
 MP_ISendRecv       183222                  28416.
 MP_Wait            340515
 MP_comm_split          57
 MP_ISend           144737                 241444.
 MP_IRecv           144737                 241773.
 MP_Recv              1536                 857856.
 MP_Write_All            4                 215808.
 -------------------------------------------------------------------------------


 -------------------------------------------------------------------------------
 -                                                                             -
 -                           R E F E R E N C E S                               -
 -                                                                             -
 -------------------------------------------------------------------------------
 
 CP2K version 2022.1, the CP2K developers group (2022).
 CP2K is freely available from https://www.cp2k.org/ .

 Kuehne,Thomas D.; Iannuzzi,Marcella; Del Ben,Mauro;
 Rybkin,Vladimir V.; Seewald,Patrick; Stein,Frederick; Laino,Teodoro;
 Khaliullin,Rustam Z.; Schuett,Ole; Schiffmann,Florian; Golze,Dorothea;
 Wilhelm,Jan; Chulkov,Sergey; Bani-Hashemian,Mohammad Hossein;
 Weber,Valery; Borstnik,Urban; Taillefumier,Mathieu;
 Jakobovits,Alice Shoshana; Lazzaro,Alfio; Pabst,Hans; Mueller,Tiziano;
 Schade,Robert; Guidon,Manuel; Andermatt,Samuel; Holmberg,Nico;
 Schenter,Gregory K.; Hehn,Anna; Bussy,Augustin; Belleflamme,Fabian;
 Tabacchi,Gloria; Gloess,Andreas; Lass,Michael; Bethune,Iain;
 Mundy,Christopher J.; Plessl,Christian; Watkins,Matt;
 VandeVondele,Joost; Krack,Matthias; Hutter,Juerg. 
 The Journal of Chemical Physics, 152 (19), (2020). 
 CP2K: An electronic structure and molecular dynamics software package -
 Quickstep: Efficient and accurate electronic structure calculations.
 https://doi.org/10.1063/5.0007045

 Holmberg, Nico; Laasonen, Kari. 
 The Journal of Chemical Physics, 149 (10), 104702 (2018). 
 Diabatic model for electrochemical hydrogen evolution based on
 constrained DFT
 configuration interaction.
 https://doi.org/10.1063/1.5038959

 Holmberg, N; Laasonen, K. 
 Journal of Chemical Theory and Computation, 13 (2), (2017). 
 Efficient Constrained Density Functional Theory Implementation for
 Simulation of Condensed Phase Electron Transfer Reactions.
 https://doi.org/10.1021/acs.jctc.6b01085

 Goerigk, Lars; Hansen, Andreas; Bauer, Christoph; Ehrlich, Stephan;
 Najibi, Asim; Grimme, Stefan. , 19 (48), (2017). 
 A look at the density functional theory zoo with the advanced GMTKN55 database
 for general main group thermochemistry, kinetics and noncovalent interactions.
 https://doi.org/10.1039/C7CP04913G

 Schuett, Ole; Messmer, Peter; Hutter, Juerg; VandeVondele, Joost. 
 Electronic Structure Calculations on Graphics Processing Units, John
 Wiley & Sons, Ltd, 173-190 (2016). 
 GPU-Accelerated Sparse Matrix-Matrix Multiplication for
 Linear Scaling Density Functional Theory.
 https://doi.org/10.1002/9781118670712.ch8

 Heinecke, A; Henry, G; Hutchinson, M; Pabst, H. 
 Proceedings of Intl. Supercomputing Conference, 981-991 (2016). 
 LIBXSMM: Accelerating Small Matrix Multiplications
 by Runtime Code Generation.
 https://doi.org/10.1109/SC.2016.83

 Borstnik, U; VandeVondele, J; Weber, V; Hutter, J. 
 PARALLEL COMPUTING, 40 (5-6), 47-58 (2014). 
 Sparse matrix multiplication: The distributed block-compressed sparse
 row library.
 https://doi.org/10.1016/j.parco.2014.03.012

 Hutter, J; Iannuzzi, M; Schiffmann, F; VandeVondele, J. 
 WIREs Comput Mol Sci., 4 (1), 15-25 (2014). 
 CP2K: atomistic simulations of condensed matter systems.
 https://doi.org/10.1002/wcms.1159

 Marek, A; Blum, V; Johanni, R; Havu, V; Lang, B; Auckenthaler, T;
 Heinecke, A; Bungartz, H; Lederer, H. 
 Journal of Physics: Condensed Matter, 26 (21), (2014). 
 The ELPA library: scalable parallel eigenvalue solutions for
 electronic structure
 theory and computational science.
 https://doi.org/10.1088/0953-8984/26/21/213201

 Grimme, S; Ehrlich, S; Goerigk, L. 
 JOURNAL OF COMPUTATIONAL CHEMISTRY, 32, 1456 (2011). 
 Effect of the damping function in dispersion corrected density functional theory.
 https://doi.org/10.1002/jcc.21759

 Grimme, S; Antony, J; Ehrlich, S; Krieg, H. 
 JOURNAL OF CHEMICAL PHYSICS, 132 (15), 154104 (2010). 
 A consistent and accurate ab initio parametrization of density
 functional dispersion correction (DFT-D) for the 94 elements H-Pu.
 https://doi.org/10.1063/1.3382344

 Weber, V; VandeVondele, J; Hutter, J; Niklasson, AMN. 
 JOURNAL OF CHEMICAL PHYSICS, 128 (8), 084113 (2008). 
 Direct energy functional minimization under orthogonality constraints.
 https://doi.org/10.1063/1.2841077

 VandeVondele, J; Hutter, J. 
 JOURNAL OF CHEMICAL PHYSICS, 127 (11), 114105 (2007). 
 Gaussian basis sets for accurate calculations on molecular systems in
 gas and condensed phases.
 https://doi.org/10.1063/1.2770708

 Krack, M. 
 THEORETICAL CHEMISTRY ACCOUNTS, 114 (1-3), 145-152 (2005). 
 Pseudopotentials for H to Kr optimized for gradient-corrected
 exchange-correlation functionals.
 https://doi.org/10.1007/s00214-005-0655-y

 VandeVondele, J; Krack, M; Mohamed, F; Parrinello, M; Chassaing, T;
 Hutter, J. COMPUTER PHYSICS COMMUNICATIONS, 167 (2), 103-128 (2005). 
 QUICKSTEP: Fast and accurate density functional calculations using a
 mixed Gaussian and plane waves approach.
 https://doi.org/10.1016/j.cpc.2004.12.014

 Frigo, M; Johnson, SG. 
 PROCEEDINGS OF THE IEEE, 93 (2), 216-231 (2005). 
 The design and implementation of FFTW3.
 https://doi.org/10.1109/JPROC.2004.840301

 VandeVondele, J; Hutter, J. 
 JOURNAL OF CHEMICAL PHYSICS, 118 (10), 4365-4369 (2003). 
 An efficient orbital transformation method for electronic structure
 calculations.
 https://doi.org/10.1063/1.1543154

 Hartwigsen, C; Goedecker, S; Hutter, J. 
 PHYSICAL REVIEW B, 58 (7), 3641-3662 (1998). 
 Relativistic separable dual-space Gaussian pseudopotentials from H to Rn.
 https://doi.org/10.1103/PhysRevB.58.3641

 Dudarev, SL; Botton, GA; Savrasov, SY; Humphreys, CJ; Sutton, AP. 
 PHYSICAL REVIEW B, 57 (3), 1505-1509 (1998). 
 Electron-energy-loss spectra and the structural stability of
 nickel oxide: An LSDA+U study.
 https://doi.org/10.1103/PhysRevB.57.1505

 Lippert, G; Hutter, J; Parrinello, M. 
 MOLECULAR PHYSICS, 92 (3), 477-487 (1997). 
 A hybrid Gaussian and plane wave density functional scheme.
 https://doi.org/10.1080/002689797170220

 Dudarev, SL; Manh, DN; Sutton, AP. 
 PHILOSOPHICAL MAGAZINE B, 75 (5), 613-628 (1997). 
 Effect of Mott-Hubbard correlations on the electronic
 structure and structural stability of uranium dioxide.
 https://doi.org/10.1080/13642819708202343

 Perdew, JP; Burke, K; Ernzerhof, M. 
 PHYSICAL REVIEW LETTERS, 77 (18), 3865-3868 (1996). 
 Generalized gradient approximation made simple.
 https://doi.org/10.1103/PhysRevLett.77.3865

 Goedecker, S; Teter, M; Hutter, J. 
 PHYSICAL REVIEW B, 54 (3), 1703-1710 (1996). 
 Separable dual-space Gaussian pseudopotentials.
 https://doi.org/10.1103/PhysRevB.54.1703


 -------------------------------------------------------------------------------
 -                                                                             -
 -                                T I M I N G                                  -
 -                                                                             -
 -------------------------------------------------------------------------------
 SUBROUTINE                       CALLS  ASD         SELF TIME        TOTAL TIME
                                MAXIMUM       AVERAGE  MAXIMUM  AVERAGE  MAXIMUM
 CP2K                                 1  1.0    0.077    0.090 3053.020 3053.046
 qs_energies                          2  2.0    0.004    0.005 3051.078 3051.102
 cdft_scf_loop                        2  3.0    0.001    0.001 3036.360 3036.386
 scf_env_do_scf                      12  4.0    0.005    0.012 3034.020 3034.044
 scf_env_do_scf_inner_loop          516  5.0    0.012    0.028 2908.149 2913.305
 qs_ks_update_qs_env                530  6.0    0.005    0.007 1421.208 1422.474
 rebuild_ks_matrix                  516  7.0    0.003    0.004 1419.752 1421.025
 qs_ks_build_kohn_sham_matrix       516  8.0    0.101    0.124 1419.749 1421.022
 qs_rho_update_rho_low              518  6.0    0.004    0.005 1293.083 1293.711
 calculate_rho_elec                1036  7.0    1.770    1.867 1293.079 1293.707
 grid_collocate_task_list          1036  8.0 1004.577 1054.373 1004.577 1054.373
 sum_up_and_integrate               264  9.0    6.918    7.344  627.494  627.662
 integrate_v_rspace                 530 10.0    0.026    0.032  622.907  624.136
 dbcsr_multiply_generic           12843 11.1    0.873    1.029  509.347  521.344
 plus_u                             516  9.0    0.022    0.033  515.734  515.967
 lowdin                             516 10.0    0.137    0.225  515.712  515.935
 grid_integrate_task_list           530 11.0  473.586  498.234  473.586  498.234
 multiply_cannon                  12843 12.1    1.555    2.346  394.667  421.520
 multiply_cannon_loop             12843 13.1    2.996    3.224  365.329  392.894
 density_rs2pw                     1036  8.0    0.083    0.095  267.474  307.509
 multiply_cannon_multrec         256860 14.1  255.013  286.418  255.177  286.752
 qs_scf_new_mos                     516  6.0    0.004    0.006  258.667  260.252
 qs_scf_loop_do_ot                  516  7.0    0.010    0.019  258.663  260.248
 cp_dbcsr_sm_fm_multiply           1628 10.9    0.062    0.072  238.735  240.133
 rs_pw_transfer                    7844 10.0    0.089    0.116  193.509  231.941
 ot_scf_mini                        516  8.0    0.039    0.060  224.271  225.042
 pw_transfer                      10164  9.9    0.765    1.005  202.688  205.161
 fft_wrap_pw1pw2                   9132 10.9    0.086    0.111  195.970  198.482
 cp_gemm                           1184 10.7    0.004    0.006  195.927  196.431
 cp_gemm_fm_gemm                   1184 11.7    0.006    0.009  195.923  196.426
 cp_fm_gemm                        1184 12.7  195.917  196.419  195.917  196.419
 qs_vxc_create                      516  9.0    0.015    0.024  191.646  191.757
 fft_wrap_pw1pw2_250               2868 11.5   22.576   23.979  183.530  187.221
 cp_dbcsr_sm_fm_multiply_core      1628 11.9    0.028    0.047  164.580  172.502
 fft3d_ps                          9132 12.9   88.585   92.492  138.914  140.893
 xc_vxc_pw_create                   264 10.0   16.541   19.162  132.703  132.757
 qs_ot_get_orbitals_ref            1032  9.0    0.017    0.028  131.815  132.412
 mp_waitall_1                   1120523 14.7  101.450  132.361  101.450  132.361
 pw_nn_compose_r                   6240 12.9   90.036   93.371  108.930  131.407
 xc_rho_set_and_dset_create         516 11.0   12.803   14.064  123.342  126.754
 mp_waitany                      144688 12.0   79.642  126.206   79.642  126.206
 rs_pw_transfer_RS2PW_250          1046 10.0   28.727   44.572   87.576  125.374
 init_scf_loop                       14  5.0    0.004    0.006  121.299  121.399
 potential_pw2rs                    530 11.0    0.088    0.091  115.725  117.254
 multiply_cannon_metrocomm3      256860 14.1    0.753    0.804   68.720  101.205
 xc_pw_derive                      4680 12.0    0.026    0.037   79.014  100.322
 ot_mini                            516  9.0    0.004    0.006   91.986   93.359
 mp_alltoall_d11v                 28551 13.6   67.922   87.717   67.922   87.717
 cp_dbcsr_plus_fm_fm_t_native       532 11.0    0.025    0.036   76.462   79.053
 make_m2s                         25686 12.1    0.833    0.921   76.896   78.914
 dbcsr_complete_redistribute       6580 12.6   25.677   29.377   67.373   71.410
 ot_new_cg_direction                264 10.0    0.006    0.007   70.421   70.428
 make_images                      25686 13.1    1.996    2.253   67.905   69.438
 apply_preconditioner_dbcsr         528 11.0    0.004    0.006   68.296   69.315
 apply_all                          528 12.0    0.076    0.090   68.293   69.313
 copy_dbcsr_to_fm                  2412 11.5    0.085    0.108   56.090   63.404
 -------------------------------------------------------------------------------

 The number of warnings for this run is : 87
 
 -------------------------------------------------------------------------------
  **** **** ******  **  PROGRAM ENDED AT                 2023-05-20 16:44:30.829
 ***** ** ***  *** **   PROGRAM RAN ON                                    node10
 **    ****   ******    PROGRAM RAN BY                                      wyin
 ***** **    ** ** **   PROGRAM PROCESS ID                                  1906
  **** **  *******  **  PROGRAM STOPPED IN /home/wyin/bozai/job/1-TiO2/2-slab-11
                                           0/2-slab+H2O/1-1H2O/4-Marcus/3-Hab/2-
                                           40-24
