 DBCSR| CPU Multiplication driver                                           XSMM (U)
 DBCSR| Multrec recursion limit                                              512 (U)
 DBCSR| Multiplication stack size                                           1000 (D)
 DBCSR| Maximum elements for images                                    UNLIMITED (U)
 DBCSR| Multiplicative factor virtual images                                   1 (U)
 DBCSR| Use multiplication densification                                       T (D)
 DBCSR| Multiplication size stacks                                             3 (U)
 DBCSR| Use memory pool for CPU allocation                                     F (U)
 DBCSR| Number of 3D layers                                               SINGLE (U)
 DBCSR| Use MPI memory allocation                                              F (U)
 DBCSR| Use RMA algorithm                                                      F (U)
 DBCSR| Use Communication thread                                               T (U)
 DBCSR| Communication thread load                                             87 (D)
 DBCSR| MPI: My process id                                                     0
 DBCSR| MPI: Number of processes                                              32
 DBCSR| OMP: Current number of threads                                         1
 DBCSR| OMP: Max number of threads                                             1
 DBCSR| Split modifier for TAS multiplication algorithm                  1.0E+00 (U)


  **** **** ******  **  PROGRAM STARTED AT               2023-07-16 02:59:33.934
 ***** ** ***  *** **   PROGRAM STARTED ON                                node11
 **    ****   ******    PROGRAM STARTED BY                                   ywj
 ***** **    ** ** **   PROGRAM PROCESS ID                                 41715
  **** **  *******  **  PROGRAM STARTED IN /home/ywj/bozai/work/1-TiO2/1-Bulk/ba
                                           rrier-delocalization-localization/2-c
                                           ube/0-0.0

 CP2K| version string:                                       CP2K version 2023.1
 CP2K| source code revision number:                                  git:b888bd8
 CP2K| cp2kflags: omp libint fftw3 libxc pexsi elpa parallel scalapack cosma xsm
 CP2K|            m max_contr=4 plumed2 spglib mkl sirius libvori libbqb libvdwx
 CP2K|            xc
 CP2K| is freely available from                            https://www.cp2k.org/
 CP2K| Program compiled at                           Fri Apr 7 12:39:25 CST 2023
 CP2K| Program compiled on                                                node01
 CP2K| Program compiled for                                   Linux-intel-x86_64
 CP2K| Data directory path                        /opt/software/cp2k-2023.1/data
 CP2K| Input file name                                            input-slab.inp
 
 GLOBAL| Force Environment number                                              1
 GLOBAL| Basis set file name            /home/ywj/bozai/Bootstrap/BASIS_SET-file
 GLOBAL| Potential file name            /home/ywj/bozai/Bootstrap/BASIS_SET-file
 GLOBAL| MM Potential file name                                     MM_POTENTIAL
 GLOBAL| Coordinate file name                                          0-0.0.xyz
 GLOBAL| Method name                                                        CP2K
 GLOBAL| Project name                                                    PROJECT
 GLOBAL| Run type                                                         ENERGY
 GLOBAL| FFT library                                                       FFTW3
 GLOBAL| Diagonalization library                                            ELPA
 GLOBAL| DGEMM library                                                      BLAS
 GLOBAL| Minimum number of eigenvectors for ELPA usage                        16
 GLOBAL| Orthonormality check for eigenvectors                          DISABLED
 GLOBAL| Matrix multiplication library                                     COSMA
 GLOBAL| All-to-all communication in single precision                          F
 GLOBAL| FFTs using library dependent lengths                                  F
 GLOBAL| Grid backend                                                       AUTO
 GLOBAL| Global print level                                               MEDIUM
 GLOBAL| MPI I/O enabled                                                       T
 GLOBAL| Total number of message passing processes                            32
 GLOBAL| Number of threads for this process                                    1
 GLOBAL| This output is from process                                           0
 GLOBAL| Stack size for threads created by OpenMP (OMP_STACKSIZE)        default
 GLOBAL| CPU model name            Intel(R) Xeon(R) Platinum 8350C CPU @ 2.60GHz
 GLOBAL| CPUID                                                              1003

 MEMORY| system memory details [Kb]
 MEMORY|                        rank 0           min           max       average
 MEMORY| MemTotal            263613276     263613276     263613276     263613276
 MEMORY| MemFree             163945904     163945904     163945904     163945904
 MEMORY| Buffers                186924        186924        186924        186924
 MEMORY| Cached               74070256      74070256      74070256      74070256
 MEMORY| Slab                   850116        850116        850116        850116
 MEMORY| SReclaimable           660888        660888        660888        660888
 MEMORY| MemLikelyFree       238863972     238863972     238863972     238863972


 *** Fundamental physical constants (SI units) ***

 *** Literature: B. J. Mohr and B. N. Taylor,
 ***             CODATA recommended values of the fundamental physical
 ***             constants: 2006, Web Version 5.1
 ***             http://physics.nist.gov/constants

 Speed of light in vacuum [m/s]                             2.99792458000000E+08
 Magnetic constant or permeability of vacuum [N/A**2]       1.25663706143592E-06
 Electric constant or permittivity of vacuum [F/m]          8.85418781762039E-12
 Planck constant (h) [J*s]                                  6.62606896000000E-34
 Planck constant (h-bar) [J*s]                              1.05457162825177E-34
 Elementary charge [C]                                      1.60217648700000E-19
 Electron mass [kg]                                         9.10938215000000E-31
 Electron g factor [ ]                                     -2.00231930436220E+00
 Proton mass [kg]                                           1.67262163700000E-27
 Fine-structure constant                                    7.29735253760000E-03
 Rydberg constant [1/m]                                     1.09737315685270E+07
 Avogadro constant [1/mol]                                  6.02214179000000E+23
 Boltzmann constant [J/K]                                   1.38065040000000E-23
 Atomic mass unit [kg]                                      1.66053878200000E-27
 Bohr radius [m]                                            5.29177208590000E-11

 *** Conversion factors ***

 [u] -> [a.u.]                                              1.82288848426455E+03
 [Angstrom] -> [Bohr] = [a.u.]                              1.88972613288564E+00
 [a.u.] = [Bohr] -> [Angstrom]                              5.29177208590000E-01
 [a.u.] -> [s]                                              2.41888432650478E-17
 [a.u.] -> [fs]                                             2.41888432650478E-02
 [a.u.] -> [J]                                              4.35974393937059E-18
 [a.u.] -> [N]                                              8.23872205491840E-08
 [a.u.] -> [K]                                              3.15774647902944E+05
 [a.u.] -> [kJ/mol]                                         2.62549961709828E+03
 [a.u.] -> [kcal/mol]                                       6.27509468713739E+02
 [a.u.] -> [Pa]                                             2.94210107994716E+13
 [a.u.] -> [bar]                                            2.94210107994716E+08
 [a.u.] -> [atm]                                            2.90362800883016E+08
 [a.u.] -> [eV]                                             2.72113838565563E+01
 [a.u.] -> [Hz]                                             6.57968392072181E+15
 [a.u.] -> [1/cm] (wave numbers)                            2.19474631370540E+05
 [a.u./Bohr**2] -> [1/cm]                                   5.14048714338585E+03
 

 CELL_TOP| Volume [angstrom^3]:                                      2911.992402
 CELL_TOP| Vector a [angstrom    13.911     0.000     0.000   |a| =    13.910500
 CELL_TOP| Vector b [angstrom     0.000    13.911     0.000   |b| =    13.910500
 CELL_TOP| Vector c [angstrom     0.000     0.000    15.049   |c| =    15.048900
 CELL_TOP| Angle (b,c), alpha [degree]:                                90.000000
 CELL_TOP| Angle (a,c), beta  [degree]:                                90.000000
 CELL_TOP| Angle (a,b), gamma [degree]:                                90.000000
 CELL_TOP| Numerically orthorhombic:                                         YES
 CELL_TOP| Periodicity                                                       XYZ
 
 GENERATE|  Preliminary Number of Bonds generated:                             0
 GENERATE|  Achieved consistency in connectivity generation.

 CELL| Volume [angstrom^3]:                                          2911.992402
 CELL| Vector a [angstrom]:      13.911     0.000     0.000   |a| =    13.910500
 CELL| Vector b [angstrom]:       0.000    13.911     0.000   |b| =    13.910500
 CELL| Vector c [angstrom]:       0.000     0.000    15.049   |c| =    15.048900
 CELL| Angle (b,c), alpha [degree]:                                    90.000000
 CELL| Angle (a,c), beta  [degree]:                                    90.000000
 CELL| Angle (a,b), gamma [degree]:                                    90.000000
 CELL| Numerically orthorhombic:                                             YES
 CELL| Periodicity                                                           XYZ

 CELL_REF| Volume [angstrom^3]:                                      2911.992402
 CELL_REF| Vector a [angstrom    13.911     0.000     0.000   |a| =    13.910500
 CELL_REF| Vector b [angstrom     0.000    13.911     0.000   |b| =    13.910500
 CELL_REF| Vector c [angstrom     0.000     0.000    15.049   |c| =    15.048900
 CELL_REF| Angle (b,c), alpha [degree]:                                90.000000
 CELL_REF| Angle (a,c), beta  [degree]:                                90.000000
 CELL_REF| Angle (a,b), gamma [degree]:                                90.000000
 CELL_REF| Numerically orthorhombic:                                         YES
 CELL_REF| Periodicity                                                       XYZ

 *******************************************************************************
 *******************************************************************************
 **                                                                           **
 **     #####                         ##              ##                      **
 **    ##   ##            ##          ##              ##                      **
 **   ##     ##                       ##            ######                    **
 **   ##     ##  ##   ##  ##   #####  ##  ##   ####   ##    #####    #####    **
 **   ##     ##  ##   ##  ##  ##      ## ##   ##      ##   ##   ##  ##   ##   **
 **   ##  ## ##  ##   ##  ##  ##      ####     ###    ##   ######   ######    **
 **    ##  ###   ##   ##  ##  ##      ## ##      ##   ##   ##       ##        **
 **     #######   #####   ##   #####  ##  ##  ####    ##    #####   ##        **
 **           ##                                                    ##        **
 **                                                                           **
 **                                                ... make the atoms dance   **
 **                                                                           **
 **            Copyright (C) by CP2K developers group (2000-2022)             **
 **                      J. Chem. Phys. 152, 194103 (2020)                    **
 **                                                                           **
 *******************************************************************************

 DFT| Spin unrestricted (spin-polarized) Kohn-Sham calculation               UKS
 DFT| Multiplicity                                                             2
 DFT| Number of spin states                                                    2
 DFT| Charge                                                                  -1
 DFT| Self-interaction correction (SIC)                                       NO
 DFT| Cutoffs: density                                              1.000000E-10
 DFT|          gradient                                             1.000000E-10
 DFT|          tau                                                  1.000000E-10
 DFT|          cutoff_smoothing_range                               0.000000E+00
 DFT| XC density smoothing                                                  NONE
 DFT| XC derivatives                                              SPLINE2_SMOOTH

 DFT+U| Method                                                            LOWDIN
 DFT+U| Check atomic kind information for details

 FUNCTIONAL| PBE:
 FUNCTIONAL| J.P.Perdew, K.Burke, M.Ernzerhof, Phys. Rev. Letter, vol. 77, n 18,
 FUNCTIONAL|  pp. 3865-3868, (1996){spin polarized}                             

 vdW POTENTIAL|                                                   Pair Potential
 vdW POTENTIAL|          DFT-D3 (Version 3.1)
 vdW POTENTIAL|          Potential Form: S. Grimme et al, JCP 132: 154104 (2010)
 vdW POTENTIAL|          Zero Damping
 vdW POTENTIAL|          Cutoff Radius [Bohr]:                             20.00
 vdW POTENTIAL|          s6 Scaling Factor:                               1.0000
 vdW POTENTIAL|          sr6 Scaling Factor:                              1.2170
 vdW POTENTIAL|          s8 Scaling Factor:                               0.7220
 vdW POTENTIAL|          Cutoff for CN calculation:                   0.1000E-05

 QS| Method:                                                                 GPW
 QS| Density plane wave grid type                        NON-SPHERICAL FULLSPACE
 QS| Number of grid levels:                                                    5
 QS| Density cutoff [a.u.]:                                                300.0
 QS| Using commensurate multigrids
 QS| Multi grid cutoff [a.u.]: 1) grid level                               300.0
 QS|                           2) grid level                                75.0
 QS|                           3) grid level                                18.8
 QS|                           4) grid level                                 4.7
 QS|                           5) grid level                                 1.2
 QS| Grid level progression factor:                                          4.0
 QS| Relative density cutoff [a.u.]:                                        20.0
 QS| Interaction thresholds: eps_pgf_orb:                                1.0E-06
 QS|                         eps_filter_matrix:                          0.0E+00
 QS|                         eps_core_charge:                            1.0E-14
 QS|                         eps_rho_gspace:                             1.0E-12
 QS|                         eps_rho_rspace:                             1.0E-12
 QS|                         eps_gvg_rspace:                             1.0E-06
 QS|                         eps_ppl:                                    1.0E-02
 QS|                         eps_ppnl:                                   1.0E-08


 ATOMIC KIND INFORMATION

  1. Atomic kind: Ti                                    Number of atoms:      90

     Orbital Basis Set                                        DZVP-MOLOPT-SR-GTH

       Number of orbital shell sets:                                           1
       Number of orbital shells:                                               8
       Number of primitive Cartesian functions:                                6
       Number of Cartesian basis functions:                                   31
       Number of spherical basis functions:                                   26
       Norm type:                                                              2

       Normalised Cartesian orbitals:

                        Set   Shell   Orbital            Exponent    Coefficient

                          1       1    2s                7.884570       0.015554
                                                         3.894698       0.963603
                                                         1.513589      -0.631435
                                                         0.596768      -0.343022
                                                         0.222222      -0.006534
                                                         0.077078       0.007652

                          1       2    3s                7.884570      -0.009340
                                                         3.894698       0.212624
                                                         1.513589      -0.258368
                                                         0.596768      -0.226206
                                                         0.222222       0.039438
                                                         0.077078       0.107179

                          1       3    4s                7.884570       0.276563
                                                         3.894698       0.105452
                                                         1.513589       0.085149
                                                         0.596768       0.882541
                                                         0.222222      -0.696223
                                                         0.077078       0.156638

                          1       4    3px               7.884570      -2.034794
                                                         3.894698       0.782008
                                                         1.513589       1.253903
                                                         0.596768       0.347823
                                                         0.222222       0.016778
                                                         0.077078      -0.000433
                          1       4    3py               7.884570      -2.034794
                                                         3.894698       0.782008
                                                         1.513589       1.253903
                                                         0.596768       0.347823
                                                         0.222222       0.016778
                                                         0.077078      -0.000433
                          1       4    3pz               7.884570      -2.034794
                                                         3.894698       0.782008
                                                         1.513589       1.253903
                                                         0.596768       0.347823
                                                         0.222222       0.016778
                                                         0.077078      -0.000433

                          1       5    4px               7.884570       0.376572
                                                         3.894698      -0.182875
                                                         1.513589      -0.474776
                                                         0.596768      -0.081757
                                                         0.222222       0.064432
                                                         0.077078       0.047279
                          1       5    4py               7.884570       0.376572
                                                         3.894698      -0.182875
                                                         1.513589      -0.474776
                                                         0.596768      -0.081757
                                                         0.222222       0.064432
                                                         0.077078       0.047279
                          1       5    4pz               7.884570       0.376572
                                                         3.894698      -0.182875
                                                         1.513589      -0.474776
                                                         0.596768      -0.081757
                                                         0.222222       0.064432
                                                         0.077078       0.047279

                          1       6    4dx2              7.884570       3.047350
                                                         3.894698       3.289529
                                                         1.513589       1.060616
                                                         0.596768       0.249930
                                                         0.222222       0.038806
                                                         0.077078       0.002319
                          1       6    4dxy              7.884570       5.278165
                                                         3.894698       5.697631
                                                         1.513589       1.837041
                                                         0.596768       0.432892
                                                         0.222222       0.067214
                                                         0.077078       0.004017
                          1       6    4dxz              7.884570       5.278165
                                                         3.894698       5.697631
                                                         1.513589       1.837041
                                                         0.596768       0.432892
                                                         0.222222       0.067214
                                                         0.077078       0.004017
                          1       6    4dy2              7.884570       3.047350
                                                         3.894698       3.289529
                                                         1.513589       1.060616
                                                         0.596768       0.249930
                                                         0.222222       0.038806
                                                         0.077078       0.002319
                          1       6    4dyz              7.884570       5.278165
                                                         3.894698       5.697631
                                                         1.513589       1.837041
                                                         0.596768       0.432892
                                                         0.222222       0.067214
                                                         0.077078       0.004017
                          1       6    4dz2              7.884570       3.047350
                                                         3.894698       3.289529
                                                         1.513589       1.060616
                                                         0.596768       0.249930
                                                         0.222222       0.038806
                                                         0.077078       0.002319

                          1       7    5dx2              7.884570      -2.119015
                                                         3.894698      -1.237751
                                                         1.513589      -0.746777
                                                         0.596768      -0.071514
                                                         0.222222       0.004086
                                                         0.077078       0.017595
                          1       7    5dxy              7.884570      -3.670241
                                                         3.894698      -2.143848
                                                         1.513589      -1.293455
                                                         0.596768      -0.123865
                                                         0.222222       0.007077
                                                         0.077078       0.030475
                          1       7    5dxz              7.884570      -3.670241
                                                         3.894698      -2.143848
                                                         1.513589      -1.293455
                                                         0.596768      -0.123865
                                                         0.222222       0.007077
                                                         0.077078       0.030475
                          1       7    5dy2              7.884570      -2.119015
                                                         3.894698      -1.237751
                                                         1.513589      -0.746777
                                                         0.596768      -0.071514
                                                         0.222222       0.004086
                                                         0.077078       0.017595
                          1       7    5dyz              7.884570      -3.670241
                                                         3.894698      -2.143848
                                                         1.513589      -1.293455
                                                         0.596768      -0.123865
                                                         0.222222       0.007077
                                                         0.077078       0.030475
                          1       7    5dz2              7.884570      -2.119015
                                                         3.894698      -1.237751
                                                         1.513589      -0.746777
                                                         0.596768      -0.071514
                                                         0.222222       0.004086
                                                         0.077078       0.017595

                          1       8    5fx3              7.884570      -0.342058
                                                         3.894698       0.375798
                                                         1.513589      -0.706469
                                                         0.596768      -0.229994
                                                         0.222222      -0.012723
                                                         0.077078       0.003932
                          1       8    5fx2y             7.884570      -0.764866
                                                         3.894698       0.840310
                                                         1.513589      -1.579712
                                                         0.596768      -0.514282
                                                         0.222222      -0.028450
                                                         0.077078       0.008792
                          1       8    5fx2z             7.884570      -0.764866
                                                         3.894698       0.840310
                                                         1.513589      -1.579712
                                                         0.596768      -0.514282
                                                         0.222222      -0.028450
                                                         0.077078       0.008792
                          1       8    5fxy2             7.884570      -0.764866
                                                         3.894698       0.840310
                                                         1.513589      -1.579712
                                                         0.596768      -0.514282
                                                         0.222222      -0.028450
                                                         0.077078       0.008792
                          1       8    5fxyz             7.884570      -1.324787
                                                         3.894698       1.455460
                                                         1.513589      -2.736142
                                                         0.596768      -0.890763
                                                         0.222222      -0.049276
                                                         0.077078       0.015229
                          1       8    5fxz2             7.884570      -0.764866
                                                         3.894698       0.840310
                                                         1.513589      -1.579712
                                                         0.596768      -0.514282
                                                         0.222222      -0.028450
                                                         0.077078       0.008792
                          1       8    5fy3              7.884570      -0.342058
                                                         3.894698       0.375798
                                                         1.513589      -0.706469
                                                         0.596768      -0.229994
                                                         0.222222      -0.012723
                                                         0.077078       0.003932
                          1       8    5fy2z             7.884570      -0.764866
                                                         3.894698       0.840310
                                                         1.513589      -1.579712
                                                         0.596768      -0.514282
                                                         0.222222      -0.028450
                                                         0.077078       0.008792
                          1       8    5fyz2             7.884570      -0.764866
                                                         3.894698       0.840310
                                                         1.513589      -1.579712
                                                         0.596768      -0.514282
                                                         0.222222      -0.028450
                                                         0.077078       0.008792
                          1       8    5fz3              7.884570      -0.342058
                                                         3.894698       0.375798
                                                         1.513589      -0.706469
                                                         0.596768      -0.229994
                                                         0.222222      -0.012723
                                                         0.077078       0.003932

       Atomic covalent radius [Angstrom]:                                  1.320

       Atomic van der Waals radius [Angstrom]:                             1.760

     GTH Potential information for                                   GTH-PBE-q12

       Description:                       Goedecker-Teter-Hutter pseudopotential
                                           Goedecker et al., PRB 54, 1703 (1996)
                                          Hartwigsen et al., PRB 58, 3641 (1998)
                                                      Krack, TCA 114, 145 (2005)

       Gaussian exponent of the core charge distribution:               3.462604
       Electronic configuration (s p d ...):                           4   6   2

       Parameters of the local part of the GTH pseudopotential:

                          rloc        C1          C2          C3          C4
                        0.380000    8.711442   -0.700287

       Parameters of the non-local part of the GTH pseudopotential:

                   l      r(l)      h(i,j,l)

                   0    0.337771    2.575264    3.692971
                                    3.692971   -4.767605
                   1    0.242531   -4.630541    8.870875
                                    8.870875  -10.496161
                   2    0.243317   -9.406653

     A DFT+U correction is applied to atoms of this atomic kind:
       Angular quantum momentum number L:                                      2
       U(eff) = (U - J) value in [eV]:                                     4.200

  2. Atomic kind: O                                     Number of atoms:     180

     Orbital Basis Set                                        DZVP-MOLOPT-SR-GTH

       Number of orbital shell sets:                                           1
       Number of orbital shells:                                               5
       Number of primitive Cartesian functions:                                5
       Number of Cartesian basis functions:                                   14
       Number of spherical basis functions:                                   13
       Norm type:                                                              2

       Normalised Cartesian orbitals:

                        Set   Shell   Orbital            Exponent    Coefficient

                          1       1    2s               10.389228       0.396646
                                                         3.849621       0.208811
                                                         1.388401      -0.301641
                                                         0.496955      -0.274061
                                                         0.162492      -0.033677

                          1       2    3s               10.389228       0.303673
                                                         3.849621       0.240943
                                                         1.388401      -0.313066
                                                         0.496955      -0.043055
                                                         0.162492       0.213991

                          1       3    3px              10.389228      -1.530415
                                                         3.849621      -1.371928
                                                         1.388401      -0.761951
                                                         0.496955      -0.253695
                                                         0.162492      -0.035541
                          1       3    3py              10.389228      -1.530415
                                                         3.849621      -1.371928
                                                         1.388401      -0.761951
                                                         0.496955      -0.253695
                                                         0.162492      -0.035541
                          1       3    3pz              10.389228      -1.530415
                                                         3.849621      -1.371928
                                                         1.388401      -0.761951
                                                         0.496955      -0.253695
                                                         0.162492      -0.035541

                          1       4    4px              10.389228      -0.565392
                                                         3.849621      -0.038231
                                                         1.388401      -0.382373
                                                         0.496955       0.179070
                                                         0.162492       0.122714
                          1       4    4py              10.389228      -0.565392
                                                         3.849621      -0.038231
                                                         1.388401      -0.382373
                                                         0.496955       0.179070
                                                         0.162492       0.122714
                          1       4    4pz              10.389228      -0.565392
                                                         3.849621      -0.038231
                                                         1.388401      -0.382373
                                                         0.496955       0.179070
                                                         0.162492       0.122714

                          1       5    4dx2             10.389228       1.867377
                                                         3.849621       0.670994
                                                         1.388401       1.353441
                                                         0.496955       0.273538
                                                         0.162492       0.006620
                          1       5    4dxy             10.389228       3.234392
                                                         3.849621       1.162195
                                                         1.388401       2.344229
                                                         0.496955       0.473781
                                                         0.162492       0.011466
                          1       5    4dxz             10.389228       3.234392
                                                         3.849621       1.162195
                                                         1.388401       2.344229
                                                         0.496955       0.473781
                                                         0.162492       0.011466
                          1       5    4dy2             10.389228       1.867377
                                                         3.849621       0.670994
                                                         1.388401       1.353441
                                                         0.496955       0.273538
                                                         0.162492       0.006620
                          1       5    4dyz             10.389228       3.234392
                                                         3.849621       1.162195
                                                         1.388401       2.344229
                                                         0.496955       0.473781
                                                         0.162492       0.011466
                          1       5    4dz2             10.389228       1.867377
                                                         3.849621       0.670994
                                                         1.388401       1.353441
                                                         0.496955       0.273538
                                                         0.162492       0.006620

       Atomic covalent radius [Angstrom]:                                  0.730

       Atomic van der Waals radius [Angstrom]:                             1.520

     GTH Potential information for                                    GTH-PBE-q6

       Description:                       Goedecker-Teter-Hutter pseudopotential
                                           Goedecker et al., PRB 54, 1703 (1996)
                                          Hartwigsen et al., PRB 58, 3641 (1998)
                                                      Krack, TCA 114, 145 (2005)

       Gaussian exponent of the core charge distribution:               8.360253
       Electronic configuration (s p d ...):                               2   4

       Parameters of the local part of the GTH pseudopotential:

                          rloc        C1          C2          C3          C4
                        0.244554  -16.667215    2.487311

       Parameters of the non-local part of the GTH pseudopotential:

                   l      r(l)      h(i,j,l)

                   0    0.220956   18.337458
                   1    0.211332


 MOLECULE KIND INFORMATION


 All atoms are their own molecule, skipping detailed information


 TOTAL NUMBERS AND MAXIMUM NUMBERS

  Total number of            - Atomic kinds:                                   2
                             - Atoms:                                        270
                             - Shell sets:                                   270
                             - Shells:                                      1620
                             - Primitive Cartesian functions:               1440
                             - Cartesian basis functions:                   5310
                             - Spherical basis functions:                   4680

  Maximum angular momentum of- Orbital basis functions:                        3
                             - Local part of the GTH pseudopotential:          2
                             - Non-local part of the GTH pseudopotential:      3


 MODULE QUICKSTEP: ATOMIC COORDINATES IN ANGSTROM

   Atom Kind Element         X             Y             Z       Z(eff)     Mass
      1    1 Ti   22      0.000009     -0.000049      0.000047  12.0000  47.8670
      2    1 Ti   22      2.318316      2.318195      1.504793  12.0000  47.8670
      3    1 Ti   22      4.636665     -0.000024     -0.000056  12.0000  47.8670
      4    1 Ti   22      6.955179      2.318397      1.504825  12.0000  47.8670
      5    1 Ti   22      9.273524     -0.000084     -0.000184  12.0000  47.8670
      6    1 Ti   22     11.591708      2.318362      1.504822  12.0000  47.8670
      7    1 Ti   22     -0.000292      4.636850      0.000116  12.0000  47.8670
      8    1 Ti   22      2.318278      6.955365      1.505025  12.0000  47.8670
      9    1 Ti   22      4.636623      4.636914     -0.000064  12.0000  47.8670
     10    1 Ti   22      6.955194      6.955171      1.504837  12.0000  47.8670
     11    1 Ti   22      9.273573      4.636923      0.000015  12.0000  47.8670
     12    1 Ti   22     11.592057      6.955483      1.504847  12.0000  47.8670
     13    1 Ti   22     -0.000039      9.273706      0.000021  12.0000  47.8670
     14    1 Ti   22      2.318508     11.591725      1.504852  12.0000  47.8670
     15    1 Ti   22      4.636842      9.273433     -0.000064  12.0000  47.8670
     16    1 Ti   22      6.955393     11.592130      1.504876  12.0000  47.8670
     17    1 Ti   22      9.273632      9.273691      0.000007  12.0000  47.8670
     18    1 Ti   22     11.592064     11.592140      1.504804  12.0000  47.8670
     19    1 Ti   22     -0.000100      0.000031      3.009820  12.0000  47.8670
     20    1 Ti   22      2.318335      2.318008      4.514696  12.0000  47.8670
     21    1 Ti   22      4.636857     -0.000267      3.009701  12.0000  47.8670
     22    1 Ti   22      6.955246      2.318396      4.514644  12.0000  47.8670
     23    1 Ti   22      9.273684      0.000020      3.009825  12.0000  47.8670
     24    1 Ti   22     11.592087      2.318768      4.514520  12.0000  47.8670
     25    1 Ti   22      0.000092      4.636730      3.009792  12.0000  47.8670
     26    1 Ti   22      2.318468      6.955234      4.514785  12.0000  47.8670
     27    1 Ti   22      4.636481      4.636603      3.009671  12.0000  47.8670
     28    1 Ti   22      6.955117      6.955188      4.514554  12.0000  47.8670
     29    1 Ti   22      9.273586      4.636963      3.009925  12.0000  47.8670
     30    1 Ti   22     11.592147      6.955350      4.514560  12.0000  47.8670
     31    1 Ti   22      0.000099      9.273825      3.009889  12.0000  47.8670
     32    1 Ti   22      2.318445     11.592108      4.514774  12.0000  47.8670
     33    1 Ti   22      4.636938      9.273625      3.009787  12.0000  47.8670
     34    1 Ti   22      6.955307     11.592029      4.514717  12.0000  47.8670
     35    1 Ti   22      9.273790      9.273812      3.009892  12.0000  47.8670
     36    1 Ti   22     11.592178     11.592121      4.514689  12.0000  47.8670
     37    1 Ti   22     -0.000170     -0.000161      6.019725  12.0000  47.8670
     38    1 Ti   22      2.318099      2.318281      7.524469  12.0000  47.8670
     39    1 Ti   22      4.636818     -0.000069      6.019676  12.0000  47.8670
     40    1 Ti   22      6.955330      2.318433      7.524400  12.0000  47.8670
     41    1 Ti   22      9.273865      0.000070      6.019723  12.0000  47.8670
     42    1 Ti   22     11.592049      2.318373      7.524368  12.0000  47.8670
     43    1 Ti   22      0.000035      4.636776      6.019533  12.0000  47.8670
     44    1 Ti   22      2.318496      6.955197      7.524487  12.0000  47.8670
     45    1 Ti   22      4.636687      4.636487      6.019463  12.0000  47.8670
     46    1 Ti   22      6.954937      6.955120      7.524408  12.0000  47.8670
     47    1 Ti   22      9.273634      4.637035      6.019841  12.0000  47.8670
     48    1 Ti   22     11.592084      6.955210      7.524403  12.0000  47.8670
     49    1 Ti   22      0.000071      9.273641      6.019739  12.0000  47.8670
     50    1 Ti   22      2.318424     11.592043      7.524629  12.0000  47.8670
     51    1 Ti   22      4.636899      9.273647      6.019592  12.0000  47.8670
     52    1 Ti   22      6.955562     11.592125      7.524530  12.0000  47.8670
     53    1 Ti   22      9.273698      9.273583      6.019731  12.0000  47.8670
     54    1 Ti   22     11.591959     11.592105      7.524519  12.0000  47.8670
     55    1 Ti   22     -0.000098      0.000087      9.029614  12.0000  47.8670
     56    1 Ti   22      2.318340      2.318331     10.534277  12.0000  47.8670
     57    1 Ti   22      4.637084     -0.000048      9.029403  12.0000  47.8670
     58    1 Ti   22      6.955164      2.318876     10.534118  12.0000  47.8670
     59    1 Ti   22      9.273551      0.000126      9.029726  12.0000  47.8670
     60    1 Ti   22     11.591961      2.318512     10.534300  12.0000  47.8670
     61    1 Ti   22     -0.000418      4.636888      9.029449  12.0000  47.8670
     62    1 Ti   22      2.318472      6.955043     10.533902  12.0000  47.8670
     63    1 Ti   22      4.636507      4.636562      9.029263  12.0000  47.8670
     64    1 Ti   22      6.955324      6.955350     10.533888  12.0000  47.8670
     65    1 Ti   22      9.273783      4.636963      9.029520  12.0000  47.8670
     66    1 Ti   22     11.592178      6.955468     10.534207  12.0000  47.8670
     67    1 Ti   22      0.000070      9.273744      9.029434  12.0000  47.8670
     68    1 Ti   22      2.318611     11.592072     10.534444  12.0000  47.8670
     69    1 Ti   22      4.636820      9.274031      9.029399  12.0000  47.8670
     70    1 Ti   22      6.955291     11.591979     10.534452  12.0000  47.8670
     71    1 Ti   22      9.273858      9.273728      9.029488  12.0000  47.8670
     72    1 Ti   22     11.592081     11.592101     10.534320  12.0000  47.8670
     73    1 Ti   22      0.000040     -0.000071     12.039198  12.0000  47.8670
     74    1 Ti   22      2.318352      2.318513     13.543994  12.0000  47.8670
     75    1 Ti   22      4.636999      0.000060     12.039130  12.0000  47.8670
     76    1 Ti   22      6.955036      2.318640     13.543854  12.0000  47.8670
     77    1 Ti   22      9.273408      0.000062     12.039280  12.0000  47.8670
     78    1 Ti   22     11.592041      2.318466     13.543952  12.0000  47.8670
     79    1 Ti   22      0.000321      4.636793     12.039209  12.0000  47.8670
     80    1 Ti   22      2.318267      6.955318     13.544007  12.0000  47.8670
     81    1 Ti   22      4.636695      4.636960     12.039142  12.0000  47.8670
     82    1 Ti   22      6.955308      6.955212     13.543791  12.0000  47.8670
     83    1 Ti   22      9.273697      4.637080     12.039187  12.0000  47.8670
     84    1 Ti   22     11.592042      6.955304     13.543901  12.0000  47.8670
     85    1 Ti   22      0.000082      9.273652     12.039085  12.0000  47.8670
     86    1 Ti   22      2.318567     11.592003     13.544038  12.0000  47.8670
     87    1 Ti   22      4.636757      9.273241     12.039100  12.0000  47.8670
     88    1 Ti   22      6.954838     11.591850     13.544070  12.0000  47.8670
     89    1 Ti   22      9.273674      9.273717     12.039229  12.0000  47.8670
     90    1 Ti   22     11.592117     11.592028     13.543973  12.0000  47.8670
     91    2 O     8      1.418323      1.418317     -0.000085   6.0000  15.9994
     92    2 O     8      3.218487      3.218441      0.000011   6.0000  15.9994
     93    2 O     8      0.900115      3.736749      1.504843   6.0000  15.9994
     94    2 O     8      3.736773      0.900046      1.504904   6.0000  15.9994
     95    2 O     8      6.055119      1.418382     -0.000090   6.0000  15.9994
     96    2 O     8      7.855275      3.218522     -0.000054   6.0000  15.9994
     97    2 O     8      5.536786      3.736781      1.504809   6.0000  15.9994
     98    2 O     8      8.373642      0.900040      1.504854   6.0000  15.9994
     99    2 O     8     10.691904      1.418262     -0.000056   6.0000  15.9994
    100    2 O     8     12.491999      3.218498      0.000011   6.0000  15.9994
    101    2 O     8     10.173607      3.736756      1.504924   6.0000  15.9994
    102    2 O     8     13.010357      0.900052      1.504866   6.0000  15.9994
    103    2 O     8      1.418219      6.055212      0.000027   6.0000  15.9994
    104    2 O     8      3.218458      7.855264      0.000001   6.0000  15.9994
    105    2 O     8      0.900041      8.373694      1.504899   6.0000  15.9994
    106    2 O     8      3.736576      5.536898      1.504874   6.0000  15.9994
    107    2 O     8      6.055120      6.055185     -0.000129   6.0000  15.9994
    108    2 O     8      7.855309      7.855267     -0.000059   6.0000  15.9994
    109    2 O     8      5.536878      8.373530      1.504870   6.0000  15.9994
    110    2 O     8      8.373575      5.536935      1.504902   6.0000  15.9994
    111    2 O     8     10.692018      6.055191     -0.000012   6.0000  15.9994
    112    2 O     8     12.492138      7.855346     -0.000085   6.0000  15.9994
    113    2 O     8     10.173677      8.373616      1.504916   6.0000  15.9994
    114    2 O     8     13.010402      5.536976      1.504984   6.0000  15.9994
    115    2 O     8      1.418314     10.691981     -0.000064   6.0000  15.9994
    116    2 O     8      3.218551     12.492041      0.000045   6.0000  15.9994
    117    2 O     8      0.900130     13.010362      1.504917   6.0000  15.9994
    118    2 O     8      3.736800     10.173586      1.504855   6.0000  15.9994
    119    2 O     8      6.055070     10.691902      0.000086   6.0000  15.9994
    120    2 O     8      7.855197     12.492073     -0.000110   6.0000  15.9994
    121    2 O     8      5.536920     13.010403      1.504798   6.0000  15.9994
    122    2 O     8      8.373670     10.173792      1.504912   6.0000  15.9994
    123    2 O     8     10.692037     10.691916     -0.000043   6.0000  15.9994
    124    2 O     8     12.492185     12.492080     -0.000054   6.0000  15.9994
    125    2 O     8     10.173674     13.010408      1.504831   6.0000  15.9994
    126    2 O     8     13.010416     10.173753      1.504925   6.0000  15.9994
    127    2 O     8      1.418323      1.418251      3.009737   6.0000  15.9994
    128    2 O     8      3.218358      3.218341      3.009772   6.0000  15.9994
    129    2 O     8      0.900103      3.736615      4.514674   6.0000  15.9994
    130    2 O     8      3.736827      0.899996      4.514629   6.0000  15.9994
    131    2 O     8      6.055173      1.418298      3.009728   6.0000  15.9994
    132    2 O     8      7.855304      3.218476      3.009766   6.0000  15.9994
    133    2 O     8      5.536797      3.736627      4.514595   6.0000  15.9994
    134    2 O     8      8.373617      0.900031      4.514732   6.0000  15.9994
    135    2 O     8     10.691965      1.418362      3.009790   6.0000  15.9994
    136    2 O     8     12.492106      3.218533      3.009671   6.0000  15.9994
    137    2 O     8     10.173697      3.736855      4.514749   6.0000  15.9994
    138    2 O     8     13.010460      0.900176      4.514719   6.0000  15.9994
    139    2 O     8      1.418375      6.055202      3.009817   6.0000  15.9994
    140    2 O     8      3.218517      7.855356      3.009807   6.0000  15.9994
    141    2 O     8      0.900110      8.373626      4.514744   6.0000  15.9994
    142    2 O     8      3.736722      5.536858      4.514677   6.0000  15.9994
    143    2 O     8      6.055085      6.055095      3.009736   6.0000  15.9994
    144    2 O     8      7.855299      7.855344      3.009739   6.0000  15.9994
    145    2 O     8      5.536910      8.373601      4.514693   6.0000  15.9994
    146    2 O     8      8.373597      5.536964      4.514753   6.0000  15.9994
    147    2 O     8     10.692057      6.055188      3.009732   6.0000  15.9994
    148    2 O     8     12.492230      7.855407      3.009768   6.0000  15.9994
    149    2 O     8     10.173770      8.373595      4.514718   6.0000  15.9994
    150    2 O     8     13.010456      5.536850      4.514639   6.0000  15.9994
    151    2 O     8      1.418386     10.692007      3.009826   6.0000  15.9994
    152    2 O     8      3.218478     12.492039      3.009741   6.0000  15.9994
    153    2 O     8      0.900015     13.010440      4.514723   6.0000  15.9994
    154    2 O     8      3.736781     10.173767      4.514665   6.0000  15.9994
    155    2 O     8      6.055227     10.692017      3.009752   6.0000  15.9994
    156    2 O     8      7.855365     12.492113      3.009786   6.0000  15.9994
    157    2 O     8      5.536907     13.010391      4.514706   6.0000  15.9994
    158    2 O     8      8.373627     10.173680      4.514742   6.0000  15.9994
    159    2 O     8     10.692086     10.692064      3.009773   6.0000  15.9994
    160    2 O     8     12.492139     12.492126      3.009757   6.0000  15.9994
    161    2 O     8     10.173762     13.010414      4.514708   6.0000  15.9994
    162    2 O     8     13.010451     10.173754      4.514743   6.0000  15.9994
    163    2 O     8      1.418258      1.418194      6.019598   6.0000  15.9994
    164    2 O     8      3.218292      3.218348      6.019605   6.0000  15.9994
    165    2 O     8      0.899987      3.736839      7.524529   6.0000  15.9994
    166    2 O     8      3.736800      0.900130      7.524561   6.0000  15.9994
    167    2 O     8      6.055207      1.418314      6.019575   6.0000  15.9994
    168    2 O     8      7.855320      3.218578      6.019531   6.0000  15.9994
    169    2 O     8      5.536813      3.736653      7.524432   6.0000  15.9994
    170    2 O     8      8.373642      0.900135      7.524531   6.0000  15.9994
    171    2 O     8     10.692105      1.418422      6.019497   6.0000  15.9994
    172    2 O     8     12.492180      3.218549      6.019552   6.0000  15.9994
    173    2 O     8     10.173774      3.736819      7.524506   6.0000  15.9994
    174    2 O     8     13.010430      0.900105      7.524545   6.0000  15.9994
    175    2 O     8      1.418373      6.055189      6.019579   6.0000  15.9994
    176    2 O     8      3.218494      7.855381      6.019604   6.0000  15.9994
    177    2 O     8      0.900112      8.373589      7.524504   6.0000  15.9994
    178    2 O     8      3.736697      5.536799      7.524396   6.0000  15.9994
    179    2 O     8      6.055064      6.055006      6.019501   6.0000  15.9994
    180    2 O     8      7.855195      7.855307      6.019613   6.0000  15.9994
    181    2 O     8      5.536809      8.373654      7.524514   6.0000  15.9994
    182    2 O     8      8.373546      5.536945      7.524602   6.0000  15.9994
    183    2 O     8     10.692045      6.055191      6.019516   6.0000  15.9994
    184    2 O     8     12.492175      7.855323      6.019570   6.0000  15.9994
    185    2 O     8     10.173768      8.373544      7.524536   6.0000  15.9994
    186    2 O     8     13.010361      5.536878      7.524429   6.0000  15.9994
    187    2 O     8      1.418372     10.692045      6.019645   6.0000  15.9994
    188    2 O     8      3.218445     12.492175      6.019637   6.0000  15.9994
    189    2 O     8      0.900025     13.010442      7.524595   6.0000  15.9994
    190    2 O     8      3.736786     10.173844      7.524448   6.0000  15.9994
    191    2 O     8      6.055282     10.692005      6.019656   6.0000  15.9994
    192    2 O     8      7.855402     12.492192      6.019567   6.0000  15.9994
    193    2 O     8      5.536985     13.010374      7.524449   6.0000  15.9994
    194    2 O     8      8.373725     10.173749      7.524558   6.0000  15.9994
    195    2 O     8     10.691995     10.692000      6.019598   6.0000  15.9994
    196    2 O     8     12.492053     12.492137      6.019623   6.0000  15.9994
    197    2 O     8     10.173637     13.010438      7.524649   6.0000  15.9994
    198    2 O     8     13.010402     10.173767      7.524536   6.0000  15.9994
    199    2 O     8      1.418274      1.418287      9.029441   6.0000  15.9994
    200    2 O     8      3.218385      3.218411      9.029309   6.0000  15.9994
    201    2 O     8      0.900135      3.736791     10.534172   6.0000  15.9994
    202    2 O     8      3.736845      0.900068     10.534237   6.0000  15.9994
    203    2 O     8      6.055270      1.418439      9.029336   6.0000  15.9994
    204    2 O     8      7.855403      3.218609      9.029322   6.0000  15.9994
    205    2 O     8      5.536741      3.736784     10.534249   6.0000  15.9994
    206    2 O     8      8.373486      0.900222     10.534368   6.0000  15.9994
    207    2 O     8     10.691995      1.418410      9.029356   6.0000  15.9994
    208    2 O     8     12.492092      3.218435      9.029345   6.0000  15.9994
    209    2 O     8     10.173762      3.736819     10.534337   6.0000  15.9994
    210    2 O     8     13.010358      0.900098     10.534363   6.0000  15.9994
    211    2 O     8      1.418238      6.055112      9.029257   6.0000  15.9994
    212    2 O     8      3.218516      7.855426      9.029309   6.0000  15.9994
    213    2 O     8      0.900131      8.373571     10.534240   6.0000  15.9994
    214    2 O     8      3.736644      5.536786     10.534137   6.0000  15.9994
    215    2 O     8      6.055080      6.055036      9.029346   6.0000  15.9994
    216    2 O     8      7.855378      7.855313      9.029167   6.0000  15.9994
    217    2 O     8      5.536902      8.373610     10.534124   6.0000  15.9994
    218    2 O     8      8.373616      5.536958     10.534237   6.0000  15.9994
    219    2 O     8     10.692078      6.055245      9.029383   6.0000  15.9994
    220    2 O     8     12.492218      7.855347      9.029282   6.0000  15.9994
    221    2 O     8     10.173767      8.373603     10.534306   6.0000  15.9994
    222    2 O     8     13.010384      5.536917     10.534362   6.0000  15.9994
    223    2 O     8      1.418427     10.692008      9.029472   6.0000  15.9994
    224    2 O     8      3.218577     12.492194      9.029427   6.0000  15.9994
    225    2 O     8      0.900109     13.010404     10.534298   6.0000  15.9994
    226    2 O     8      3.736779     10.173738     10.534319   6.0000  15.9994
    227    2 O     8      6.055288     10.692088      9.029372   6.0000  15.9994
    228    2 O     8      7.855356     12.492167      9.029529   6.0000  15.9994
    229    2 O     8      5.536998     13.010342     10.534308   6.0000  15.9994
    230    2 O     8      8.373626     10.173718     10.534266   6.0000  15.9994
    231    2 O     8     10.692028     10.692030      9.029381   6.0000  15.9994
    232    2 O     8     12.492101     12.492148      9.029408   6.0000  15.9994
    233    2 O     8     10.173696     13.010464     10.534368   6.0000  15.9994
    234    2 O     8     13.010434     10.173781     10.534247   6.0000  15.9994
    235    2 O     8      1.418304      1.418389     12.039131   6.0000  15.9994
    236    2 O     8      3.218462      3.218500     12.039102   6.0000  15.9994
    237    2 O     8      0.900133      3.736792     13.544123   6.0000  15.9994
    238    2 O     8      3.736726      0.900051     13.543952   6.0000  15.9994
    239    2 O     8      6.055194      1.418466     12.039047   6.0000  15.9994
    240    2 O     8      7.855346      3.218681     12.039078   6.0000  15.9994
    241    2 O     8      5.536786      3.736882     13.543952   6.0000  15.9994
    242    2 O     8      8.373483      0.900178     13.544014   6.0000  15.9994
    243    2 O     8     10.691949      1.418346     12.039142   6.0000  15.9994
    244    2 O     8     12.492261      3.218511     12.039133   6.0000  15.9994
    245    2 O     8     10.173730      3.736815     13.544002   6.0000  15.9994
    246    2 O     8     13.010456      0.900070     13.544031   6.0000  15.9994
    247    2 O     8      1.418388      6.055215     12.039056   6.0000  15.9994
    248    2 O     8      3.218398      7.855188     12.039017   6.0000  15.9994
    249    2 O     8      0.900052      8.373660     13.543997   6.0000  15.9994
    250    2 O     8      3.736599      5.536937     13.543949   6.0000  15.9994
    251    2 O     8      6.055216      6.055200     12.038973   6.0000  15.9994
    252    2 O     8      7.855350      7.855328     12.038980   6.0000  15.9994
    253    2 O     8      5.536953      8.373500     13.543980   6.0000  15.9994
    254    2 O     8      8.373599      5.536927     13.544014   6.0000  15.9994
    255    2 O     8     10.692060      6.055274     12.039048   6.0000  15.9994
    256    2 O     8     12.492220      7.855391     12.039130   6.0000  15.9994
    257    2 O     8     10.173750      8.373608     13.543986   6.0000  15.9994
    258    2 O     8     13.010463      5.536910     13.543957   6.0000  15.9994
    259    2 O     8      1.418367     10.692058     12.039175   6.0000  15.9994
    260    2 O     8      3.218642     12.492166     12.039198   6.0000  15.9994
    261    2 O     8      0.900171     13.010400     13.544033   6.0000  15.9994
    262    2 O     8      3.736754     10.173590     13.543973   6.0000  15.9994
    263    2 O     8      6.054983     10.691847     12.039135   6.0000  15.9994
    264    2 O     8      7.855277     12.492033     12.039278   6.0000  15.9994
    265    2 O     8      5.536858     13.010414     13.544030   6.0000  15.9994
    266    2 O     8      8.373503     10.173691     13.544037   6.0000  15.9994
    267    2 O     8     10.691990     10.692002     12.039122   6.0000  15.9994
    268    2 O     8     12.492199     12.492126     12.039140   6.0000  15.9994
    269    2 O     8     10.173761     13.010387     13.543962   6.0000  15.9994
    270    2 O     8     13.010418     10.173715     13.543964   6.0000  15.9994



 SCF PARAMETERS         Density guess:                                   RESTART
                        --------------------------------------------------------
                        max_scf:                                             200
                        max_scf_history:                                       0
                        max_diis:                                              4
                        --------------------------------------------------------
                        eps_scf:                                        1.00E-06
                        eps_scf_history:                                0.00E+00
                        eps_diis:                                       1.00E-01
                        eps_eigval:                                     1.00E-05
                        --------------------------------------------------------
                        level_shift [a.u.]:                             0.000000
                        --------------------------------------------------------
                        Outer loop SCF in use 
                        No variables optimised in outer loop
                        eps_scf                                         1.00E-06
                        max_scf                                              100
                        No outer loop optimization
                        step_size                                       5.00E-01

 PW_GRID| Information for grid number                                          1
 PW_GRID| Grid distributed over                                    32 processors
 PW_GRID| Real space group dimensions                                    32    1
 PW_GRID| the grid is blocked:                                                NO
 PW_GRID| Cutoff [a.u.]                                                    300.0
 PW_GRID| spherical cutoff:                                                   NO
 PW_GRID|   Bounds   1           -120     119                Points:         240
 PW_GRID|   Bounds   2           -120     119                Points:         240
 PW_GRID|   Bounds   3           -120     119                Points:         240
 PW_GRID| Volume element (a.u.^3)  0.1422E-02     Volume (a.u.^3)     19651.0990
 PW_GRID| Grid span                                                    FULLSPACE
 PW_GRID|   Distribution                         Average         Max         Min
 PW_GRID|   G-Vectors                           432000.0      432000      432000
 PW_GRID|   G-Rays                                1800.0        1800        1800
 PW_GRID|   Real Space Points                   432000.0      460800      403200

 PW_GRID| Information for grid number                                          2
 PW_GRID| Number of the reference grid                                         1
 PW_GRID| Grid distributed over                                    32 processors
 PW_GRID| Real space group dimensions                                    32    1
 PW_GRID| the grid is blocked:                                                NO
 PW_GRID| Cutoff [a.u.]                                                     75.0
 PW_GRID| spherical cutoff:                                                   NO
 PW_GRID|   Bounds   1            -60      59                Points:         120
 PW_GRID|   Bounds   2            -60      59                Points:         120
 PW_GRID|   Bounds   3            -60      59                Points:         120
 PW_GRID| Volume element (a.u.^3)  0.1137E-01     Volume (a.u.^3)     19651.0990
 PW_GRID| Grid span                                                    FULLSPACE
 PW_GRID|   Distribution                         Average         Max         Min
 PW_GRID|   G-Vectors                            54000.0       54120       53880
 PW_GRID|   G-Rays                                 450.0         451         449
 PW_GRID|   Real Space Points                    54000.0       57600       43200

 PW_GRID| Information for grid number                                          3
 PW_GRID| Number of the reference grid                                         1
 PW_GRID| Grid distributed over                                    32 processors
 PW_GRID| Real space group dimensions                                    32    1
 PW_GRID| the grid is blocked:                                                NO
 PW_GRID| Cutoff [a.u.]                                                     18.8
 PW_GRID| spherical cutoff:                                                   NO
 PW_GRID|   Bounds   1            -30      29                Points:          60
 PW_GRID|   Bounds   2            -30      29                Points:          60
 PW_GRID|   Bounds   3            -30      29                Points:          60
 PW_GRID| Volume element (a.u.^3)  0.9098E-01     Volume (a.u.^3)     19651.0990
 PW_GRID| Grid span                                                    FULLSPACE
 PW_GRID|   Distribution                         Average         Max         Min
 PW_GRID|   G-Vectors                             6750.0        6780        6720
 PW_GRID|   G-Rays                                 112.5         113         112
 PW_GRID|   Real Space Points                     6750.0        7200        3600

 PW_GRID| Information for grid number                                          4
 PW_GRID| Number of the reference grid                                         1
 PW_GRID| Grid distributed over                                    32 processors
 PW_GRID| Real space group dimensions                                    32    1
 PW_GRID| the grid is blocked:                                                NO
 PW_GRID| Cutoff [a.u.]                                                      4.7
 PW_GRID| spherical cutoff:                                                   NO
 PW_GRID|   Bounds   1            -15      14                Points:          30
 PW_GRID|   Bounds   2            -15      14                Points:          30
 PW_GRID|   Bounds   3            -15      14                Points:          30
 PW_GRID| Volume element (a.u.^3)  0.7278         Volume (a.u.^3)     19651.0990
 PW_GRID| Grid span                                                    FULLSPACE
 PW_GRID|   Distribution                         Average         Max         Min
 PW_GRID|   G-Vectors                              843.8         930         780
 PW_GRID|   G-Rays                                  28.1          31          26
 PW_GRID|   Real Space Points                      843.8         900           0

 PW_GRID| Information for grid number                                          5
 PW_GRID| Number of the reference grid                                         1
 PW_GRID| Grid distributed over                                    32 processors
 PW_GRID| Real space group dimensions                                    32    1
 PW_GRID| the grid is blocked:                                                NO
 PW_GRID| Cutoff [a.u.]                                                      1.2
 PW_GRID| spherical cutoff:                                                   NO
 PW_GRID|   Bounds   1             -7       7                Points:          15
 PW_GRID|   Bounds   2             -7       7                Points:          15
 PW_GRID|   Bounds   3             -7       7                Points:          15
 PW_GRID| Volume element (a.u.^3)   5.823         Volume (a.u.^3)     19651.0990
 PW_GRID| Grid span                                                    FULLSPACE
 PW_GRID|   Distribution                         Average         Max         Min
 PW_GRID|   G-Vectors                              105.5         150          75
 PW_GRID|   G-Rays                                   7.0          10           5
 PW_GRID|   Real Space Points                      105.5         225           0

 POISSON| Solver                                                        PERIODIC
 POISSON| Periodicity                                                        XYZ

 RS_GRID| Information for grid number                                          1
 RS_GRID|   Bounds   1           -120     119                Points:         240
 RS_GRID|   Bounds   2           -120     119                Points:         240
 RS_GRID|   Bounds   3           -120     119                Points:         240
 RS_GRID| Real space distribution over                                  4 groups
 RS_GRID| Real space distribution along direction                              2
 RS_GRID| Border size                                                         29
 RS_GRID| Real space distribution over                                  8 groups
 RS_GRID| Real space distribution along direction                              3
 RS_GRID| Border size                                                         29
 RS_GRID|   Distribution                         Average         Max         Min
 RS_GRID|   Planes                                 118.0         118         118
 RS_GRID|   Distribution                         Average         Max         Min
 RS_GRID|   Planes                                  88.0          88          88

 RS_GRID| Information for grid number                                          2
 RS_GRID|   Bounds   1            -60      59                Points:         120
 RS_GRID|   Bounds   2            -60      59                Points:         120
 RS_GRID|   Bounds   3            -60      59                Points:         120
 RS_GRID| Real space distribution over                                  4 groups
 RS_GRID| Real space distribution along direction                              2
 RS_GRID| Border size                                                         30
 RS_GRID| Real space distribution over                                  8 groups
 RS_GRID| Real space distribution along direction                              3
 RS_GRID| Border size                                                         30
 RS_GRID|   Distribution                         Average         Max         Min
 RS_GRID|   Planes                                  90.0          90          90
 RS_GRID|   Distribution                         Average         Max         Min
 RS_GRID|   Planes                                  75.0          75          75

 RS_GRID| Information for grid number                                          3
 RS_GRID|   Bounds   1            -30      29                Points:          60
 RS_GRID|   Bounds   2            -30      29                Points:          60
 RS_GRID|   Bounds   3            -30      29                Points:          60
 RS_GRID| Real space fully replicated
 RS_GRID| Group size                                                           1

 RS_GRID| Information for grid number                                          4
 RS_GRID|   Bounds   1            -15      14                Points:          30
 RS_GRID|   Bounds   2            -15      14                Points:          30
 RS_GRID|   Bounds   3            -15      14                Points:          30
 RS_GRID| Real space fully replicated
 RS_GRID| Group size                                                           1

 RS_GRID| Information for grid number                                          5
 RS_GRID|   Bounds   1             -7       7                Points:          15
 RS_GRID|   Bounds   2             -7       7                Points:          15
 RS_GRID|   Bounds   3             -7       7                Points:          15
 RS_GRID| Real space fully replicated
 RS_GRID| Group size                                                           1

 Spin 1

 Number of electrons:                                                       1081
 Number of occupied orbitals:                                               1081
 Number of molecular orbitals:                                              1081

 Spin 2

 Number of electrons:                                                       1080
 Number of occupied orbitals:                                               1080
 Number of molecular orbitals:                                              1080

 Number of orbital functions:                                               4680
 Number of independent orbital functions:                                   4680

 Extrapolation method: initial_guess

 *** WARNING in qs_initial_guess.F:309 :: User requested to restart the    ***
 *** wavefunction from the file named: PROJECT-RESTART.wfn. This file does ***
 *** not exist. Please check the existence of the file or change properly  ***
 *** the value of the keyword WFN_RESTART_FILE_NAME. Calculation continues ***
 *** using ATOMIC GUESS.                                                   ***


 Atomic guess: The first density matrix is obtained in terms of atomic orbitals
               and electronic configurations assigned to each atomic kind

 Guess for atomic kind: Ti

 Electronic structure
    Total number of core electrons                                         10.00
    Total number of valence electrons                                      12.00
    Total number of electrons                                              22.00
    Multiplicity                                                   not specified
    S   [  2.00  2.00] 2.00  2.00
    P   [  6.00] 6.00
    D      2.00
 

 *******************************************************************************
                  Iteration          Convergence                     Energy [au]
 *******************************************************************************
                          1         2.59099                     -56.573945749309
                          2        0.737518                     -57.461623245624
                          3        0.123244E-01                 -57.676656834797
                          4        0.338536E-02                 -57.676690535970
                          5        0.252157E-03                 -57.676697146183
                          6        0.162704E-05                 -57.676697160103
                          7        0.846593E-06                 -57.676697160104

 Energy components [Hartree]           Total Energy ::          -57.676697160104
                                        Band Energy ::          -13.440549799540
                                     Kinetic Energy ::           25.008468428382
                                   Potential Energy ::          -82.685165588485
                                      Virial (-V/T) ::            3.306286661467
                                        Core Energy ::          -97.155838374470
                                          XC Energy ::           -6.919409696495
                                     Coulomb Energy ::           46.398550910862
                       Total Pseudopotential Energy ::         -122.259340742081
                       Local Pseudopotential Energy ::         -118.928992669456
                    Nonlocal Pseudopotential Energy ::           -3.330348072625
                                        Confinement ::            0.950339392289

 Orbital energies  State     L     Occupation   Energy[a.u.]          Energy[eV]

                       1     0          2.000      -2.312566          -62.928123
                       2     0          2.000      -0.123060           -3.348633
 
                       1     1          6.000      -1.385567          -37.703193
 
                       1     2          2.000      -0.127948           -3.481643
 

 Total Electron Density at R=0:                                         0.004726

 Guess for atomic kind: O

 Electronic structure
    Total number of core electrons                                          2.00
    Total number of valence electrons                                       6.00
    Total number of electrons                                               8.00
    Multiplicity                                                   not specified
    S   [  2.00] 2.00
    P      4.00
 

 *******************************************************************************
                  Iteration          Convergence                     Energy [au]
[...]
 flops    13 x    13 x   576        4698502848000       0.0%    100.0%      0.0%
 flops    26 x    13 x   576        4888615680000       0.0%    100.0%      0.0%
 flops    13 x    26 x   576        4888615680000       0.0%    100.0%      0.0%
 flops    26 x    26 x   576        4942933632000       0.0%    100.0%      0.0%
 flops  1170 x   128 x   572        5131539578880       0.0%    100.0%      0.0%
 flops  1170 x   128 x   598        5364791377920       0.0%    100.0%      0.0%
 flops  1170 x   128 x   128        8557166592000       0.0%    100.0%      0.0%
 flops  1170 x   128 x   585       10496330956800       0.0%    100.0%      0.0%
 flops    13 x    32 x    13       22771090068480       0.0%    100.0%      0.0%
 flops    26 x    32 x    13       23737996339200       0.0%    100.0%      0.0%
 flops    13 x    32 x    26       23737996339200       0.0%    100.0%      0.0%
 flops    26 x    32 x    26       23914227916800       0.0%    100.0%      0.0%
 flops inhomo. stacks                           0       0.0%      0.0%      0.0%
 flops total                       203.026803E+12       0.0%    100.0%      0.0%
 flops max/rank                      7.062015E+12       0.0%    100.0%      0.0%
 matmuls inhomo. stacks                         0       0.0%      0.0%      0.0%
 matmuls total                         5163919695       0.0%    100.0%      0.0%
 number of processed stacks               8046071       0.0%    100.0%      0.0%
 average stack size                                     0.0     641.8       0.0
 marketing flops                   308.314999E+12
 -------------------------------------------------------------------------------
 # multiplications                          14113
 max memory usage/rank               1.441993E+09
 # max total images/rank                        2
 # max 3D layers                                1
 # MPI messages exchanged                 5871008
 MPI messages size (bytes):
  total size                         5.561516E+12
  min size                           0.000000E+00
  max size                           5.758976E+06
  average size                     947.284625E+03
 MPI breakdown and total messages size (bytes):
             size <=      128             2055280                   864864
       128 < size <=     8192               10704                 23169312
      8192 < size <=    32768              127380               1525436928
     32768 < size <=   131072              485036              62878526160
    131072 < size <=  4194304             2571512            2122286024008
   4194304 < size <= 16777216              621096            3375493756544
  16777216 < size                               0                        0
 -------------------------------------------------------------------------------

 *** WARNING in dbcsr_mm.F:290 :: Using a non-square number of MPI ranks ***
 *** might lead to poor performance. Used ranks: 32 Suggested: 36 64     ***

 -------------------------------------------------------------------------------
 -                                                                             -
 -                      DBCSR MESSAGE PASSING PERFORMANCE                      -
 -                                                                             -
 -------------------------------------------------------------------------------
 ROUTINE             CALLS      AVE VOLUME [Bytes]
 MP_Bcast              447                     12.
 MP_Allreduce        72777                     45.
 MP_Alltoall         64539                 741554.
 MP_ISend           437804                 433107.
 MP_IRecv           436156                 430531.
 -------------------------------------------------------------------------------

 -------------------------------------------------------------------------------
 -                                                                             -
 -                                DBM STATISTICS                               -
 -                                                                             -
 -------------------------------------------------------------------------------
    M  x    N  x    K                                          COUNT     PERCENT
 -------------------------------------------------------------------------------

 -------------------------------------------------------------------------------
 -                                                                             -
 -                                GRID STATISTICS                              -
 -                                                                             -
 -------------------------------------------------------------------------------
 LP    KERNEL             BACKEND                              COUNT     PERCENT
 5     collocate ortho    REF                               72558720      25.61%
 5     integrate ortho    REF                               72093600      25.44%
 6     collocate ortho    REF                               36925200      13.03%
 6     integrate ortho    REF                               36688500      12.95%
 4     collocate ortho    REF                               32628960      11.51%
 4     integrate ortho    REF                               32419800      11.44%
 0     collocate general  REF                                  17280       0.01%
 0     integrate general  REF                                  17280       0.01%
 2     collocate ortho    REF                                   7200       0.00%
 3     collocate ortho    REF                                   4320       0.00%
 -------------------------------------------------------------------------------

 MEMORY| Estimated peak process memory [MiB]                                1366

 -------------------------------------------------------------------------------
 ----                             MULTIGRID INFO                            ----
 -------------------------------------------------------------------------------
 count for grid        1:         755360          cutoff [a.u.]          300.00
 count for grid        2:         358250          cutoff [a.u.]           75.00
 count for grid        3:         444690          cutoff [a.u.]           18.75
 count for grid        4:         130870          cutoff [a.u.]            4.69
 count for grid        5:              0          cutoff [a.u.]            1.17
 total gridlevel count  :        1689170

 -------------------------------------------------------------------------------
 -                                                                             -
 -                         MESSAGE PASSING PERFORMANCE                         -
 -                                                                             -
 -------------------------------------------------------------------------------

 ROUTINE             CALLS      AVE VOLUME [Bytes]
 MP_Group                5
 MP_Bcast            22807                  17305.
 MP_Allreduce        67645                   5764.
 MP_Sync              1098
 MP_Alltoall          4264               10053974.
 MP_SendRecv         33480                  70933.
 MP_ISendRecv        28830                  22200.
 MP_Wait             80016
 MP_comm_split         543
 MP_ISend            46764                 359324.
 MP_IRecv            46764                 359380.
 MP_Recv              1024                1198080.
 MP_Write_All            8                 758400.
 -------------------------------------------------------------------------------


 -------------------------------------------------------------------------------
 -                                                                             -
 -                           R E F E R E N C E S                               -
 -                                                                             -
 -------------------------------------------------------------------------------
 
 CP2K version 2023.1, the CP2K developers group (2023).
 CP2K is freely available from https://www.cp2k.org/ .

 Kuehne,Thomas D.; Iannuzzi,Marcella; Del Ben,Mauro;
 Rybkin,Vladimir V.; Seewald,Patrick; Stein,Frederick; Laino,Teodoro;
 Khaliullin,Rustam Z.; Schuett,Ole; Schiffmann,Florian; Golze,Dorothea;
 Wilhelm,Jan; Chulkov,Sergey; Bani-Hashemian,Mohammad Hossein;
 Weber,Valery; Borstnik,Urban; Taillefumier,Mathieu;
 Jakobovits,Alice Shoshana; Lazzaro,Alfio; Pabst,Hans; Mueller,Tiziano;
 Schade,Robert; Guidon,Manuel; Andermatt,Samuel; Holmberg,Nico;
 Schenter,Gregory K.; Hehn,Anna; Bussy,Augustin; Belleflamme,Fabian;
 Tabacchi,Gloria; Gloess,Andreas; Lass,Michael; Bethune,Iain;
 Mundy,Christopher J.; Plessl,Christian; Watkins,Matt;
 VandeVondele,Joost; Krack,Matthias; Hutter,Juerg. 
 The Journal of Chemical Physics, 152 (19), (2020). 
 CP2K: An electronic structure and molecular dynamics software package -
 Quickstep: Efficient and accurate electronic structure calculations.
 https://doi.org/10.1063/5.0007045

 Goerigk, Lars; Hansen, Andreas; Bauer, Christoph; Ehrlich, Stephan;
 Najibi, Asim; Grimme, Stefan. , 19 (48), (2017). 
 A look at the density functional theory zoo with the advanced GMTKN55 database
 for general main group thermochemistry, kinetics and noncovalent interactions.
 https://doi.org/10.1039/C7CP04913G

 Schuett, Ole; Messmer, Peter; Hutter, Juerg; VandeVondele, Joost. 
 Electronic Structure Calculations on Graphics Processing Units, John
 Wiley & Sons, Ltd, 173-190 (2016). 
 GPU-Accelerated Sparse Matrix-Matrix Multiplication for
 Linear Scaling Density Functional Theory.
 https://doi.org/10.1002/9781118670712.ch8

 Heinecke, A; Henry, G; Hutchinson, M; Pabst, H. 
 Proceedings of Intl. Supercomputing Conference, 981-991 (2016). 
 LIBXSMM: Accelerating Small Matrix Multiplications
 by Runtime Code Generation.
 https://doi.org/10.1109/SC.2016.83

 Borstnik, U; VandeVondele, J; Weber, V; Hutter, J. 
 PARALLEL COMPUTING, 40 (5-6), 47-58 (2014). 
 Sparse matrix multiplication: The distributed block-compressed sparse
 row library.
 https://doi.org/10.1016/j.parco.2014.03.012

 Hutter, J; Iannuzzi, M; Schiffmann, F; VandeVondele, J. 
 WIREs Comput Mol Sci., 4 (1), 15-25 (2014). 
 CP2K: atomistic simulations of condensed matter systems.
 https://doi.org/10.1002/wcms.1159

 Marek, A; Blum, V; Johanni, R; Havu, V; Lang, B; Auckenthaler, T;
 Heinecke, A; Bungartz, H; Lederer, H. 
 Journal of Physics: Condensed Matter, 26 (21), (2014). 
 The ELPA library: scalable parallel eigenvalue solutions for
 electronic structure
 theory and computational science.
 https://doi.org/10.1088/0953-8984/26/21/213201

 Grimme, S; Ehrlich, S; Goerigk, L. 
 JOURNAL OF COMPUTATIONAL CHEMISTRY, 32, 1456 (2011). 
 Effect of the damping function in dispersion corrected density functional theory.
 https://doi.org/10.1002/jcc.21759

 Grimme, S; Antony, J; Ehrlich, S; Krieg, H. 
 JOURNAL OF CHEMICAL PHYSICS, 132 (15), 154104 (2010). 
 A consistent and accurate ab initio parametrization of density
 functional dispersion correction (DFT-D) for the 94 elements H-Pu.
 https://doi.org/10.1063/1.3382344

 VandeVondele, J; Hutter, J. 
 JOURNAL OF CHEMICAL PHYSICS, 127 (11), 114105 (2007). 
 Gaussian basis sets for accurate calculations on molecular systems in
 gas and condensed phases.
 https://doi.org/10.1063/1.2770708

 Krack, M. 
 THEORETICAL CHEMISTRY ACCOUNTS, 114 (1-3), 145-152 (2005). 
 Pseudopotentials for H to Kr optimized for gradient-corrected
 exchange-correlation functionals.
 https://doi.org/10.1007/s00214-005-0655-y

 VandeVondele, J; Krack, M; Mohamed, F; Parrinello, M; Chassaing, T;
 Hutter, J. COMPUTER PHYSICS COMMUNICATIONS, 167 (2), 103-128 (2005). 
 QUICKSTEP: Fast and accurate density functional calculations using a
 mixed Gaussian and plane waves approach.
 https://doi.org/10.1016/j.cpc.2004.12.014

 Frigo, M; Johnson, SG. 
 PROCEEDINGS OF THE IEEE, 93 (2), 216-231 (2005). 
 The design and implementation of FFTW3.
 https://doi.org/10.1109/JPROC.2004.840301

 VandeVondele, J; Hutter, J. 
 JOURNAL OF CHEMICAL PHYSICS, 118 (10), 4365-4369 (2003). 
 An efficient orbital transformation method for electronic structure
 calculations.
 https://doi.org/10.1063/1.1543154

 Hartwigsen, C; Goedecker, S; Hutter, J. 
 PHYSICAL REVIEW B, 58 (7), 3641-3662 (1998). 
 Relativistic separable dual-space Gaussian pseudopotentials from H to Rn.
 https://doi.org/10.1103/PhysRevB.58.3641

 Dudarev, SL; Botton, GA; Savrasov, SY; Humphreys, CJ; Sutton, AP. 
 PHYSICAL REVIEW B, 57 (3), 1505-1509 (1998). 
 Electron-energy-loss spectra and the structural stability of
 nickel oxide: An LSDA+U study.
 https://doi.org/10.1103/PhysRevB.57.1505

 Lippert, G; Hutter, J; Parrinello, M. 
 MOLECULAR PHYSICS, 92 (3), 477-487 (1997). 
 A hybrid Gaussian and plane wave density functional scheme.
 https://doi.org/10.1080/002689797170220

 Dudarev, SL; Manh, DN; Sutton, AP. 
 PHILOSOPHICAL MAGAZINE B, 75 (5), 613-628 (1997). 
 Effect of Mott-Hubbard correlations on the electronic
 structure and structural stability of uranium dioxide.
 https://doi.org/10.1080/13642819708202343

 Perdew, JP; Burke, K; Ernzerhof, M. 
 PHYSICAL REVIEW LETTERS, 77 (18), 3865-3868 (1996). 
 Generalized gradient approximation made simple.
 https://doi.org/10.1103/PhysRevLett.77.3865

 Goedecker, S; Teter, M; Hutter, J. 
 PHYSICAL REVIEW B, 54 (3), 1703-1710 (1996). 
 Separable dual-space Gaussian pseudopotentials.
 https://doi.org/10.1103/PhysRevB.54.1703


 -------------------------------------------------------------------------------
 -                                                                             -
 -                                T I M I N G                                  -
 -                                                                             -
 -------------------------------------------------------------------------------
 SUBROUTINE                       CALLS  ASD         SELF TIME        TOTAL TIME
                                MAXIMUM       AVERAGE  MAXIMUM  AVERAGE  MAXIMUM
 CP2K                                 1  1.0    0.057    0.084 2836.128 2836.133
 qs_energies                          1  2.0    0.000    0.001 2835.066 2835.080
 scf_env_do_scf                       1  3.0    0.001    0.001 2377.285 2377.291
 scf_env_do_scf_inner_loop          155  4.0    0.008    0.022 2352.255 2357.707
 qs_ks_update_qs_env                156  5.0    0.002    0.003 1267.292 1269.189
 rebuild_ks_matrix                  155  6.0    0.004    0.013 1265.547 1267.444
 qs_ks_build_kohn_sham_matrix       155  7.0    0.063    0.080 1265.543 1267.440
 dbcsr_multiply_generic           14113  9.3    1.262    1.325  738.691  748.944
 qs_rho_update_rho_low              156  5.0    0.004    0.007  697.744  701.277
 calculate_rho_elec                 312  6.0    0.903    0.932  697.739  701.274
 sum_up_and_integrate               155  8.0    2.585    2.702  610.387  610.515
 integrate_v_rspace                 310  9.0    0.019    0.021  607.795  607.907
 multiply_cannon                  14113 10.3    1.942    2.393  567.483  593.786
 multiply_cannon_loop             14113 11.3    2.414    2.788  530.510  560.979
 grid_integrate_task_list           310 10.0  465.679  517.723  465.679  517.723
 plus_u                             155  8.0    0.013    0.014  496.484  496.878
 lowdin                             155  9.0    0.085    0.131  496.471  496.864
 grid_collocate_task_list           312  7.0  440.657  489.544  440.657  489.544
 scf_post_calculation_gpw             1  3.0    0.000    0.001  447.261  447.281
 qs_scf_new_mos                     155  5.0    0.002    0.002  383.161  385.414
 qs_scf_loop_do_ot                  155  6.0    0.006    0.011  383.160  385.412
 ot_scf_mini                        155  7.0    0.021    0.035  356.097  358.165
 pw_to_cube                           8  5.0    7.959  244.137  323.501  326.714
 multiply_cannon_multrec         112904 12.3  268.785  318.616  269.398  319.105
 mp_waitall_1                    936484 13.5  275.290  298.765  275.290  298.765
 cp_dbcsr_sm_fm_multiply            639  9.9    0.046    0.050  250.808  253.376
 mp_alltoall_d11v                 17353 12.3  184.565  250.514  184.565  250.514
 multiply_cannon_metrocomm3      112904 12.3    0.884    0.948  199.107  246.887
 ot_mini                            579  6.5    0.009    0.010  241.668  243.865
 mp_bcast_l                           8  6.0  235.693  243.297  235.693  243.297
 density_rs2pw                      312  7.0    0.038    0.042  143.132  202.495
 rs_pw_transfer                    3154  9.4    0.061    0.071  139.322  197.858
 cp_dbcsr_sm_fm_multiply_core       639 10.9    0.016    0.031  179.500  183.999
 qs_scf_post_unocc_cubes              2  4.0   11.463   13.927  180.815  180.833
 qs_scf_post_occ_cubes                2  4.0    9.691   16.629  167.215  167.243
 mp_waitany                       46764 11.4   75.110  136.168   75.110  136.168
 rs_pw_transfer_RS2PW_300           322  8.9   16.154   17.374   73.939  132.557
 cp_dbcsr_plus_fm_fm_t_native       312 10.0    0.027    0.030  127.577  131.506
 qs_ot_get_derivative               524  8.2    0.016    0.021  123.734  125.787
 make_m2s                         28226 10.3    1.009    1.099  118.720  123.791
 rs_gather_matrices                 310 10.0    3.795    3.935   59.445  121.314
 write_mo_set_to_restart            155  5.0    3.671  116.958    9.715  119.417
 ot_diis_step                       155  9.0    0.028    0.032  116.688  116.708
 rs_scatter_matrices                312  7.0    4.498    4.705  111.546  115.207
 parallel_gemm_fm                   360  9.6    0.004    0.005  109.417  109.926
 parallel_gemm_fm_cosma             360 10.6  109.413  109.921  109.413  109.921
 apply_preconditioner_dbcsr         312 10.0    0.012    0.040  106.440  108.933
 apply_all                          312 11.0    0.165    0.183  106.428  108.908
 pw_transfer                       3936  9.2    0.345    0.382   99.154  100.514
 fft_wrap_pw1pw2                   3626 10.3    0.039    0.053   97.378   98.753
 make_images                      28226 11.3    1.930    2.053   92.164   95.866
 fft_wrap_pw1pw2_300               1106 10.8    7.622    7.965   89.428   90.945
 qs_vxc_create                      155  8.0    0.014    0.023   90.183   90.724
 xc_vxc_pw_create                   155  9.0   14.165   15.356   90.169   90.713
 ot_eigensolver                       4  6.0    0.018    0.024   84.511   84.524
 potential_pw2rs                    310 10.0    0.070    0.088   82.652   83.559
 mp_file_write_all_chv                8  6.0   79.359   82.573   79.359   82.573
 qs_ot_get_derivative_diag          412  9.5    0.028    0.034   78.618   80.707
 multiply_cannon_metrocomm1      112904 12.3    0.466    0.540   45.003   80.376
 dbcsr_complete_redistribute       3608 11.3   35.315   37.608   76.229   80.297
 make_lumo_gpw                        1  4.0    0.000    0.002   73.125   73.127
 copy_fm_to_dbcsr                  2245 10.4    0.059    0.068   66.059   69.896
 qs_ot_get_p                        749  6.8    0.016    0.022   63.010   68.357
 fft3d_ps                          3626 12.3   30.915   32.655   66.597   68.090
 -------------------------------------------------------------------------------

 The number of warnings for this run is : 2
 
 -------------------------------------------------------------------------------
  **** **** ******  **  PROGRAM ENDED AT                 2023-07-16 03:46:52.814
 ***** ** ***  *** **   PROGRAM RAN ON                                    node11
 **    ****   ******    PROGRAM RAN BY                                       ywj
 ***** **    ** ** **   PROGRAM PROCESS ID                                 41715
  **** **  *******  **  PROGRAM STOPPED IN /home/ywj/bozai/work/1-TiO2/1-Bulk/ba
                                           rrier-delocalization-localization/2-c
                                           ube/0-0.0
