 DBCSR| CPU Multiplication driver                                           XSMM (U)
 DBCSR| Multrec recursion limit                                              512 (U)
 DBCSR| Multiplication stack size                                           1000 (D)
 DBCSR| Maximum elements for images                                    UNLIMITED (U)
 DBCSR| Multiplicative factor virtual images                                   1 (U)
 DBCSR| Use multiplication densification                                       T (D)
 DBCSR| Multiplication size stacks                                             3 (U)
 DBCSR| Use memory pool for CPU allocation                                     F (U)
 DBCSR| Number of 3D layers                                               SINGLE (U)
 DBCSR| Use MPI memory allocation                                              F (U)
 DBCSR| Use RMA algorithm                                                      F (U)
 DBCSR| Use Communication thread                                               T (U)
 DBCSR| Communication thread load                                             87 (D)
 DBCSR| MPI: My process id                                                     0
 DBCSR| MPI: Number of processes                                              16
 DBCSR| OMP: Current number of threads                                         1
 DBCSR| OMP: Max number of threads                                             1
 DBCSR| Split modifier for TAS multiplication algorithm                  1.0E+00 (U)


  **** **** ******  **  PROGRAM STARTED AT               2023-07-26 14:57:29.851
 ***** ** ***  *** **   PROGRAM STARTED ON                                node04
 **    ****   ******    PROGRAM STARTED BY                                   ywj
 ***** **    ** ** **   PROGRAM PROCESS ID                                  4610
  **** **  *******  **  PROGRAM STARTED IN /home/ywj/bozai/work/1-TiO2/2-slab-11
                                           0/1-pure/4-deal/2-cube/k-1.0

 CP2K| version string:                                       CP2K version 2023.1
 CP2K| source code revision number:                                  git:b888bd8
 CP2K| cp2kflags: omp libint fftw3 libxc pexsi elpa parallel scalapack cosma xsm
 CP2K|            m max_contr=4 plumed2 spglib mkl sirius libvori libbqb libvdwx
 CP2K|            xc
 CP2K| is freely available from                            https://www.cp2k.org/
 CP2K| Program compiled at                           Fri Apr 7 12:39:25 CST 2023
 CP2K| Program compiled on                                                node01
 CP2K| Program compiled for                                   Linux-intel-x86_64
 CP2K| Data directory path                        /opt/software/cp2k-2023.1/data
 CP2K| Input file name                                            input-slab.inp
 
 GLOBAL| Force Environment number                                              1
 GLOBAL| Basis set file name            /home/ywj/bozai/Bootstrap/BASIS_SET-file
 GLOBAL| Potential file name            /home/ywj/bozai/Bootstrap/BASIS_SET-file
 GLOBAL| MM Potential file name                                     MM_POTENTIAL
 GLOBAL| Coordinate file name                                          k-1.0.xyz
 GLOBAL| Method name                                                        CP2K
 GLOBAL| Project name                                                    PROJECT
 GLOBAL| Run type                                                         ENERGY
 GLOBAL| FFT library                                                       FFTW3
 GLOBAL| Diagonalization library                                            ELPA
 GLOBAL| DGEMM library                                                      BLAS
 GLOBAL| Minimum number of eigenvectors for ELPA usage                        16
 GLOBAL| Orthonormality check for eigenvectors                          DISABLED
 GLOBAL| Matrix multiplication library                                     COSMA
 GLOBAL| All-to-all communication in single precision                          F
 GLOBAL| FFTs using library dependent lengths                                  F
 GLOBAL| Grid backend                                                       AUTO
 GLOBAL| Global print level                                               MEDIUM
 GLOBAL| MPI I/O enabled                                                       T
 GLOBAL| Total number of message passing processes                            16
 GLOBAL| Number of threads for this process                                    1
 GLOBAL| This output is from process                                           0
 GLOBAL| Stack size for threads created by OpenMP (OMP_STACKSIZE)        default
 GLOBAL| CPU model name            Intel(R) Xeon(R) Platinum 8350C CPU @ 2.60GHz
 GLOBAL| CPUID                                                              1003

 MEMORY| system memory details [Kb]
 MEMORY|                        rank 0           min           max       average
 MEMORY| MemTotal            263613340     263613340     263613340     263613340
 MEMORY| MemFree             219687084     219687084     219687084     219687084
 MEMORY| Buffers                136112        136112        136112        136112
 MEMORY| Cached                4826228       4826228       4826228       4826228
 MEMORY| Slab                   375696        375696        375696        375696
 MEMORY| SReclaimable           197776        197776        197776        197776
 MEMORY| MemLikelyFree       224847200     224847200     224847200     224847200


 *** Fundamental physical constants (SI units) ***

 *** Literature: B. J. Mohr and B. N. Taylor,
 ***             CODATA recommended values of the fundamental physical
 ***             constants: 2006, Web Version 5.1
 ***             http://physics.nist.gov/constants

 Speed of light in vacuum [m/s]                             2.99792458000000E+08
 Magnetic constant or permeability of vacuum [N/A**2]       1.25663706143592E-06
 Electric constant or permittivity of vacuum [F/m]          8.85418781762039E-12
 Planck constant (h) [J*s]                                  6.62606896000000E-34
 Planck constant (h-bar) [J*s]                              1.05457162825177E-34
 Elementary charge [C]                                      1.60217648700000E-19
 Electron mass [kg]                                         9.10938215000000E-31
 Electron g factor [ ]                                     -2.00231930436220E+00
 Proton mass [kg]                                           1.67262163700000E-27
 Fine-structure constant                                    7.29735253760000E-03
 Rydberg constant [1/m]                                     1.09737315685270E+07
 Avogadro constant [1/mol]                                  6.02214179000000E+23
 Boltzmann constant [J/K]                                   1.38065040000000E-23
 Atomic mass unit [kg]                                      1.66053878200000E-27
 Bohr radius [m]                                            5.29177208590000E-11

 *** Conversion factors ***

 [u] -> [a.u.]                                              1.82288848426455E+03
 [Angstrom] -> [Bohr] = [a.u.]                              1.88972613288564E+00
 [a.u.] = [Bohr] -> [Angstrom]                              5.29177208590000E-01
 [a.u.] -> [s]                                              2.41888432650478E-17
 [a.u.] -> [fs]                                             2.41888432650478E-02
 [a.u.] -> [J]                                              4.35974393937059E-18
 [a.u.] -> [N]                                              8.23872205491840E-08
 [a.u.] -> [K]                                              3.15774647902944E+05
 [a.u.] -> [kJ/mol]                                         2.62549961709828E+03
 [a.u.] -> [kcal/mol]                                       6.27509468713739E+02
 [a.u.] -> [Pa]                                             2.94210107994716E+13
 [a.u.] -> [bar]                                            2.94210107994716E+08
 [a.u.] -> [atm]                                            2.90362800883016E+08
 [a.u.] -> [eV]                                             2.72113838565563E+01
 [a.u.] -> [Hz]                                             6.57968392072181E+15
 [a.u.] -> [1/cm] (wave numbers)                            2.19474631370540E+05
 [a.u./Bohr**2] -> [1/cm]                                   5.14048714338585E+03
 

 CELL_TOP| Volume [angstrom^3]:                                      3844.865420
 CELL_TOP| Vector a [angstrom    12.994     0.000     0.000   |a| =    12.993800
 CELL_TOP| Vector b [angstrom     0.000    11.836     0.000   |b| =    11.836000
 CELL_TOP| Vector c [angstrom     0.000     0.000    25.000   |c| =    25.000000
 CELL_TOP| Angle (b,c), alpha [degree]:                                90.000000
 CELL_TOP| Angle (a,c), beta  [degree]:                                90.000000
 CELL_TOP| Angle (a,b), gamma [degree]:                                90.000000
 CELL_TOP| Numerically orthorhombic:                                         YES
 CELL_TOP| Periodicity                                                       XYZ
 
 GENERATE|  Preliminary Number of Bonds generated:                             0
 GENERATE|  Achieved consistency in connectivity generation.

 CELL| Volume [angstrom^3]:                                          3844.865420
 CELL| Vector a [angstrom]:      12.994     0.000     0.000   |a| =    12.993800
 CELL| Vector b [angstrom]:       0.000    11.836     0.000   |b| =    11.836000
 CELL| Vector c [angstrom]:       0.000     0.000    25.000   |c| =    25.000000
 CELL| Angle (b,c), alpha [degree]:                                    90.000000
 CELL| Angle (a,c), beta  [degree]:                                    90.000000
 CELL| Angle (a,b), gamma [degree]:                                    90.000000
 CELL| Numerically orthorhombic:                                             YES
 CELL| Periodicity                                                           XYZ

 CELL_REF| Volume [angstrom^3]:                                      3844.865420
 CELL_REF| Vector a [angstrom    12.994     0.000     0.000   |a| =    12.993800
 CELL_REF| Vector b [angstrom     0.000    11.836     0.000   |b| =    11.836000
 CELL_REF| Vector c [angstrom     0.000     0.000    25.000   |c| =    25.000000
 CELL_REF| Angle (b,c), alpha [degree]:                                90.000000
 CELL_REF| Angle (a,c), beta  [degree]:                                90.000000
 CELL_REF| Angle (a,b), gamma [degree]:                                90.000000
 CELL_REF| Numerically orthorhombic:                                         YES
 CELL_REF| Periodicity                                                       XYZ

 *******************************************************************************
 *******************************************************************************
 **                                                                           **
 **     #####                         ##              ##                      **
 **    ##   ##            ##          ##              ##                      **
 **   ##     ##                       ##            ######                    **
 **   ##     ##  ##   ##  ##   #####  ##  ##   ####   ##    #####    #####    **
 **   ##     ##  ##   ##  ##  ##      ## ##   ##      ##   ##   ##  ##   ##   **
 **   ##  ## ##  ##   ##  ##  ##      ####     ###    ##   ######   ######    **
 **    ##  ###   ##   ##  ##  ##      ## ##      ##   ##   ##       ##        **
 **     #######   #####   ##   #####  ##  ##  ####    ##    #####   ##        **
 **           ##                                                    ##        **
 **                                                                           **
 **                                                ... make the atoms dance   **
 **                                                                           **
 **            Copyright (C) by CP2K developers group (2000-2022)             **
 **                      J. Chem. Phys. 152, 194103 (2020)                    **
 **                                                                           **
 *******************************************************************************

 DFT| Spin unrestricted (spin-polarized) Kohn-Sham calculation               UKS
 DFT| Multiplicity                                                             2
 DFT| Number of spin states                                                    2
 DFT| Charge                                                                  -1
 DFT| Self-interaction correction (SIC)                                       NO
 DFT| Cutoffs: density                                              1.000000E-10
 DFT|          gradient                                             1.000000E-10
 DFT|          tau                                                  1.000000E-10
 DFT|          cutoff_smoothing_range                               0.000000E+00
 DFT| XC density smoothing                                                  NONE
 DFT| XC derivatives                                              SPLINE2_SMOOTH

 DFT+U| Method                                                            LOWDIN
 DFT+U| Check atomic kind information for details

 FUNCTIONAL| PBE:
 FUNCTIONAL| J.P.Perdew, K.Burke, M.Ernzerhof, Phys. Rev. Letter, vol. 77, n 18,
 FUNCTIONAL|  pp. 3865-3868, (1996){spin polarized}                             

 vdW POTENTIAL|                                                   Pair Potential
 vdW POTENTIAL|          DFT-D3 (Version 3.1)
 vdW POTENTIAL|          Potential Form: S. Grimme et al, JCP 132: 154104 (2010)
 vdW POTENTIAL|          Zero Damping
 vdW POTENTIAL|          Cutoff Radius [Bohr]:                             20.00
 vdW POTENTIAL|          s6 Scaling Factor:                               1.0000
 vdW POTENTIAL|          sr6 Scaling Factor:                              1.2170
 vdW POTENTIAL|          s8 Scaling Factor:                               0.7220
 vdW POTENTIAL|          Cutoff for CN calculation:                   0.1000E-05

 QS| Method:                                                                 GPW
 QS| Density plane wave grid type                        NON-SPHERICAL FULLSPACE
 QS| Number of grid levels:                                                    4
 QS| Density cutoff [a.u.]:                                                160.0
 QS| Using commensurate multigrids
 QS| Multi grid cutoff [a.u.]: 1) grid level                               160.0
 QS|                           2) grid level                                40.0
 QS|                           3) grid level                                10.0
 QS|                           4) grid level                                 2.5
 QS| Grid level progression factor:                                          4.0
 QS| Relative density cutoff [a.u.]:                                        20.0
 QS| Interaction thresholds: eps_pgf_orb:                                1.0E-06
 QS|                         eps_filter_matrix:                          0.0E+00
 QS|                         eps_core_charge:                            1.0E-14
 QS|                         eps_rho_gspace:                             1.0E-12
 QS|                         eps_rho_rspace:                             1.0E-12
 QS|                         eps_gvg_rspace:                             1.0E-06
 QS|                         eps_ppl:                                    1.0E-02
 QS|                         eps_ppnl:                                   1.0E-08


 ATOMIC KIND INFORMATION

  1. Atomic kind: Ti                                    Number of atoms:      64

     Orbital Basis Set                                        DZVP-MOLOPT-SR-GTH

       Number of orbital shell sets:                                           1
       Number of orbital shells:                                               8
       Number of primitive Cartesian functions:                                6
       Number of Cartesian basis functions:                                   31
       Number of spherical basis functions:                                   26
       Norm type:                                                              2

       Normalised Cartesian orbitals:

                        Set   Shell   Orbital            Exponent    Coefficient

                          1       1    2s                7.884570       0.015554
                                                         3.894698       0.963603
                                                         1.513589      -0.631435
                                                         0.596768      -0.343022
                                                         0.222222      -0.006534
                                                         0.077078       0.007652

                          1       2    3s                7.884570      -0.009340
                                                         3.894698       0.212624
                                                         1.513589      -0.258368
                                                         0.596768      -0.226206
                                                         0.222222       0.039438
                                                         0.077078       0.107179

                          1       3    4s                7.884570       0.276563
                                                         3.894698       0.105452
                                                         1.513589       0.085149
                                                         0.596768       0.882541
                                                         0.222222      -0.696223
                                                         0.077078       0.156638

                          1       4    3px               7.884570      -2.034794
                                                         3.894698       0.782008
                                                         1.513589       1.253903
                                                         0.596768       0.347823
                                                         0.222222       0.016778
                                                         0.077078      -0.000433
                          1       4    3py               7.884570      -2.034794
                                                         3.894698       0.782008
                                                         1.513589       1.253903
                                                         0.596768       0.347823
                                                         0.222222       0.016778
                                                         0.077078      -0.000433
                          1       4    3pz               7.884570      -2.034794
                                                         3.894698       0.782008
                                                         1.513589       1.253903
                                                         0.596768       0.347823
                                                         0.222222       0.016778
                                                         0.077078      -0.000433

                          1       5    4px               7.884570       0.376572
                                                         3.894698      -0.182875
                                                         1.513589      -0.474776
                                                         0.596768      -0.081757
                                                         0.222222       0.064432
                                                         0.077078       0.047279
                          1       5    4py               7.884570       0.376572
                                                         3.894698      -0.182875
                                                         1.513589      -0.474776
                                                         0.596768      -0.081757
                                                         0.222222       0.064432
                                                         0.077078       0.047279
                          1       5    4pz               7.884570       0.376572
                                                         3.894698      -0.182875
                                                         1.513589      -0.474776
                                                         0.596768      -0.081757
                                                         0.222222       0.064432
                                                         0.077078       0.047279

                          1       6    4dx2              7.884570       3.047350
                                                         3.894698       3.289529
                                                         1.513589       1.060616
                                                         0.596768       0.249930
                                                         0.222222       0.038806
                                                         0.077078       0.002319
                          1       6    4dxy              7.884570       5.278165
                                                         3.894698       5.697631
                                                         1.513589       1.837041
                                                         0.596768       0.432892
                                                         0.222222       0.067214
                                                         0.077078       0.004017
                          1       6    4dxz              7.884570       5.278165
                                                         3.894698       5.697631
                                                         1.513589       1.837041
                                                         0.596768       0.432892
                                                         0.222222       0.067214
                                                         0.077078       0.004017
                          1       6    4dy2              7.884570       3.047350
                                                         3.894698       3.289529
                                                         1.513589       1.060616
                                                         0.596768       0.249930
                                                         0.222222       0.038806
                                                         0.077078       0.002319
                          1       6    4dyz              7.884570       5.278165
                                                         3.894698       5.697631
                                                         1.513589       1.837041
                                                         0.596768       0.432892
                                                         0.222222       0.067214
                                                         0.077078       0.004017
                          1       6    4dz2              7.884570       3.047350
                                                         3.894698       3.289529
                                                         1.513589       1.060616
                                                         0.596768       0.249930
                                                         0.222222       0.038806
                                                         0.077078       0.002319

                          1       7    5dx2              7.884570      -2.119015
                                                         3.894698      -1.237751
                                                         1.513589      -0.746777
                                                         0.596768      -0.071514
                                                         0.222222       0.004086
                                                         0.077078       0.017595
                          1       7    5dxy              7.884570      -3.670241
                                                         3.894698      -2.143848
                                                         1.513589      -1.293455
                                                         0.596768      -0.123865
                                                         0.222222       0.007077
                                                         0.077078       0.030475
                          1       7    5dxz              7.884570      -3.670241
                                                         3.894698      -2.143848
                                                         1.513589      -1.293455
                                                         0.596768      -0.123865
                                                         0.222222       0.007077
                                                         0.077078       0.030475
                          1       7    5dy2              7.884570      -2.119015
                                                         3.894698      -1.237751
                                                         1.513589      -0.746777
                                                         0.596768      -0.071514
                                                         0.222222       0.004086
                                                         0.077078       0.017595
                          1       7    5dyz              7.884570      -3.670241
                                                         3.894698      -2.143848
                                                         1.513589      -1.293455
                                                         0.596768      -0.123865
                                                         0.222222       0.007077
                                                         0.077078       0.030475
                          1       7    5dz2              7.884570      -2.119015
                                                         3.894698      -1.237751
                                                         1.513589      -0.746777
                                                         0.596768      -0.071514
                                                         0.222222       0.004086
                                                         0.077078       0.017595

                          1       8    5fx3              7.884570      -0.342058
                                                         3.894698       0.375798
                                                         1.513589      -0.706469
                                                         0.596768      -0.229994
                                                         0.222222      -0.012723
                                                         0.077078       0.003932
                          1       8    5fx2y             7.884570      -0.764866
                                                         3.894698       0.840310
                                                         1.513589      -1.579712
                                                         0.596768      -0.514282
                                                         0.222222      -0.028450
                                                         0.077078       0.008792
                          1       8    5fx2z             7.884570      -0.764866
                                                         3.894698       0.840310
                                                         1.513589      -1.579712
                                                         0.596768      -0.514282
                                                         0.222222      -0.028450
                                                         0.077078       0.008792
                          1       8    5fxy2             7.884570      -0.764866
                                                         3.894698       0.840310
                                                         1.513589      -1.579712
                                                         0.596768      -0.514282
                                                         0.222222      -0.028450
                                                         0.077078       0.008792
                          1       8    5fxyz             7.884570      -1.324787
                                                         3.894698       1.455460
                                                         1.513589      -2.736142
                                                         0.596768      -0.890763
                                                         0.222222      -0.049276
                                                         0.077078       0.015229
                          1       8    5fxz2             7.884570      -0.764866
                                                         3.894698       0.840310
                                                         1.513589      -1.579712
                                                         0.596768      -0.514282
                                                         0.222222      -0.028450
                                                         0.077078       0.008792
                          1       8    5fy3              7.884570      -0.342058
                                                         3.894698       0.375798
                                                         1.513589      -0.706469
                                                         0.596768      -0.229994
                                                         0.222222      -0.012723
                                                         0.077078       0.003932
                          1       8    5fy2z             7.884570      -0.764866
                                                         3.894698       0.840310
                                                         1.513589      -1.579712
                                                         0.596768      -0.514282
                                                         0.222222      -0.028450
                                                         0.077078       0.008792
                          1       8    5fyz2             7.884570      -0.764866
                                                         3.894698       0.840310
                                                         1.513589      -1.579712
                                                         0.596768      -0.514282
                                                         0.222222      -0.028450
                                                         0.077078       0.008792
                          1       8    5fz3              7.884570      -0.342058
                                                         3.894698       0.375798
                                                         1.513589      -0.706469
                                                         0.596768      -0.229994
                                                         0.222222      -0.012723
                                                         0.077078       0.003932

       Atomic covalent radius [Angstrom]:                                  1.320

       Atomic van der Waals radius [Angstrom]:                             1.760

     GTH Potential information for                                   GTH-PBE-q12

       Description:                       Goedecker-Teter-Hutter pseudopotential
                                           Goedecker et al., PRB 54, 1703 (1996)
                                          Hartwigsen et al., PRB 58, 3641 (1998)
                                                      Krack, TCA 114, 145 (2005)

       Gaussian exponent of the core charge distribution:               3.462604
       Electronic configuration (s p d ...):                           4   6   2

       Parameters of the local part of the GTH pseudopotential:

                          rloc        C1          C2          C3          C4
                        0.380000    8.711442   -0.700287

       Parameters of the non-local part of the GTH pseudopotential:

                   l      r(l)      h(i,j,l)

                   0    0.337771    2.575264    3.692971
                                    3.692971   -4.767605
                   1    0.242531   -4.630541    8.870875
                                    8.870875  -10.496161
                   2    0.243317   -9.406653

     A DFT+U correction is applied to atoms of this atomic kind:
       Angular quantum momentum number L:                                      2
       U(eff) = (U - J) value in [eV]:                                     4.200

  2. Atomic kind: O                                     Number of atoms:     128

     Orbital Basis Set                                        DZVP-MOLOPT-SR-GTH

       Number of orbital shell sets:                                           1
       Number of orbital shells:                                               5
       Number of primitive Cartesian functions:                                5
       Number of Cartesian basis functions:                                   14
       Number of spherical basis functions:                                   13
       Norm type:                                                              2

       Normalised Cartesian orbitals:

                        Set   Shell   Orbital            Exponent    Coefficient

                          1       1    2s               10.389228       0.396646
                                                         3.849621       0.208811
                                                         1.388401      -0.301641
                                                         0.496955      -0.274061
                                                         0.162492      -0.033677

                          1       2    3s               10.389228       0.303673
                                                         3.849621       0.240943
                                                         1.388401      -0.313066
                                                         0.496955      -0.043055
                                                         0.162492       0.213991

                          1       3    3px              10.389228      -1.530415
                                                         3.849621      -1.371928
                                                         1.388401      -0.761951
                                                         0.496955      -0.253695
                                                         0.162492      -0.035541
                          1       3    3py              10.389228      -1.530415
                                                         3.849621      -1.371928
                                                         1.388401      -0.761951
                                                         0.496955      -0.253695
                                                         0.162492      -0.035541
                          1       3    3pz              10.389228      -1.530415
                                                         3.849621      -1.371928
                                                         1.388401      -0.761951
                                                         0.496955      -0.253695
                                                         0.162492      -0.035541

                          1       4    4px              10.389228      -0.565392
                                                         3.849621      -0.038231
                                                         1.388401      -0.382373
                                                         0.496955       0.179070
                                                         0.162492       0.122714
                          1       4    4py              10.389228      -0.565392
                                                         3.849621      -0.038231
                                                         1.388401      -0.382373
                                                         0.496955       0.179070
                                                         0.162492       0.122714
                          1       4    4pz              10.389228      -0.565392
                                                         3.849621      -0.038231
                                                         1.388401      -0.382373
                                                         0.496955       0.179070
                                                         0.162492       0.122714

                          1       5    4dx2             10.389228       1.867377
                                                         3.849621       0.670994
                                                         1.388401       1.353441
                                                         0.496955       0.273538
                                                         0.162492       0.006620
                          1       5    4dxy             10.389228       3.234392
                                                         3.849621       1.162195
                                                         1.388401       2.344229
                                                         0.496955       0.473781
                                                         0.162492       0.011466
                          1       5    4dxz             10.389228       3.234392
                                                         3.849621       1.162195
                                                         1.388401       2.344229
                                                         0.496955       0.473781
                                                         0.162492       0.011466
                          1       5    4dy2             10.389228       1.867377
                                                         3.849621       0.670994
                                                         1.388401       1.353441
                                                         0.496955       0.273538
                                                         0.162492       0.006620
                          1       5    4dyz             10.389228       3.234392
                                                         3.849621       1.162195
                                                         1.388401       2.344229
                                                         0.496955       0.473781
                                                         0.162492       0.011466
                          1       5    4dz2             10.389228       1.867377
                                                         3.849621       0.670994
                                                         1.388401       1.353441
                                                         0.496955       0.273538
                                                         0.162492       0.006620

       Atomic covalent radius [Angstrom]:                                  0.730

       Atomic van der Waals radius [Angstrom]:                             1.520

     GTH Potential information for                                    GTH-PBE-q6

       Description:                       Goedecker-Teter-Hutter pseudopotential
                                           Goedecker et al., PRB 54, 1703 (1996)
                                          Hartwigsen et al., PRB 58, 3641 (1998)
                                                      Krack, TCA 114, 145 (2005)

       Gaussian exponent of the core charge distribution:               8.360253
       Electronic configuration (s p d ...):                               2   4

       Parameters of the local part of the GTH pseudopotential:

                          rloc        C1          C2          C3          C4
                        0.244554  -16.667215    2.487311

       Parameters of the non-local part of the GTH pseudopotential:

                   l      r(l)      h(i,j,l)

                   0    0.220956   18.337458
                   1    0.211332


 MOLECULE KIND INFORMATION


 All atoms are their own molecule, skipping detailed information


 TOTAL NUMBERS AND MAXIMUM NUMBERS

  Total number of            - Atomic kinds:                                   2
                             - Atoms:                                        192
                             - Shell sets:                                   192
                             - Shells:                                      1152
                             - Primitive Cartesian functions:               1024
                             - Cartesian basis functions:                   3776
                             - Spherical basis functions:                   3328

  Maximum angular momentum of- Orbital basis functions:                        3
                             - Local part of the GTH pseudopotential:          2
                             - Non-local part of the GTH pseudopotential:      3


 MODULE QUICKSTEP: ATOMIC COORDINATES IN ANGSTROM

   Atom Kind Element         X             Y             Z       Z(eff)     Mass
      1    1 Ti   22      1.579699      1.433042      7.782924  12.0000  47.8670
      2    1 Ti   22      4.916886      1.430846     17.191499  12.0000  47.8670
      3    1 Ti   22      4.833360      1.432444     10.627078  12.0000  47.8670
      4    1 Ti   22      1.665299      1.434779     14.373112  12.0000  47.8670
      5    1 Ti   22      4.828127     -0.046230      7.308232  12.0000  47.8670
      6    1 Ti   22      1.672944     -0.046240     17.689629  12.0000  47.8670
      7    1 Ti   22      1.583033     -0.046271     11.002915  12.0000  47.8670
      8    1 Ti   22      4.916164     -0.046292     13.985466  12.0000  47.8670
      9    1 Ti   22      8.078878      1.433013      7.782956  12.0000  47.8670
     10    1 Ti   22     11.413566      1.433105     17.208494  12.0000  47.8670
     11    1 Ti   22     11.329593      1.433119     10.624169  12.0000  47.8670
     12    1 Ti   22      8.160866      1.435141     14.372848  12.0000  47.8670
     13    1 Ti   22     11.324891     -0.046246      7.306529  12.0000  47.8670
     14    1 Ti   22      8.162597     -0.046253     17.689172  12.0000  47.8670
     15    1 Ti   22      8.076522     -0.046271     11.003238  12.0000  47.8670
     16    1 Ti   22     11.411752     -0.046262     13.985039  12.0000  47.8670
     17    1 Ti   22      1.580238      4.392216      7.784091  12.0000  47.8670
     18    1 Ti   22      4.916943      4.385342     17.177805  12.0000  47.8670
     19    1 Ti   22      4.832825      4.391639     10.654876  12.0000  47.8670
     20    1 Ti   22      1.664944      4.393609     14.371737  12.0000  47.8670
     21    1 Ti   22      4.828236      2.917445      7.319826  12.0000  47.8670
     22    1 Ti   22      1.673435      2.912648     17.687343  12.0000  47.8670
     23    1 Ti   22      1.583952      2.912012     11.001405  12.0000  47.8670
     24    1 Ti   22      4.915574      2.938660     13.938737  12.0000  47.8670
     25    1 Ti   22      8.078268      4.392234      7.783928  12.0000  47.8670
     26    1 Ti   22     11.413573      4.391760     17.207107  12.0000  47.8670
     27    1 Ti   22     11.329358      4.391713     10.624678  12.0000  47.8670
     28    1 Ti   22      8.159865      4.394207     14.370994  12.0000  47.8670
     29    1 Ti   22     11.324890      2.912731      7.306752  12.0000  47.8670
     30    1 Ti   22      8.162071      2.912662     17.686636  12.0000  47.8670
     31    1 Ti   22      8.075253      2.911945     11.000431  12.0000  47.8670
     32    1 Ti   22     11.411488      2.912519     13.985046  12.0000  47.8670
     33    1 Ti   22      1.580226      7.351195      7.784089  12.0000  47.8670
     34    1 Ti   22      4.916941      7.358099     17.177897  12.0000  47.8670
     35    1 Ti   22      4.832850      7.351815     10.654851  12.0000  47.8670
     36    1 Ti   22      1.664926      7.349838     14.371757  12.0000  47.8670
     37    1 Ti   22      4.828253      5.871761      7.329551  12.0000  47.8670
     38    1 Ti   22      1.672097      5.871777     17.681469  12.0000  47.8670
     39    1 Ti   22      1.582160      5.871742     11.004435  12.0000  47.8670
     40    1 Ti   22      4.914616      5.871790     14.019580  12.0000  47.8670
     41    1 Ti   22      8.078265      7.351182      7.783928  12.0000  47.8670
     42    1 Ti   22     11.413577      7.351656     17.207106  12.0000  47.8670
     43    1 Ti   22     11.329398      7.351698     10.624681  12.0000  47.8670
     44    1 Ti   22      8.159852      7.349219     14.371005  12.0000  47.8670
     45    1 Ti   22     11.324874      5.871771      7.306926  12.0000  47.8670
     46    1 Ti   22      8.163410      5.871769     17.679820  12.0000  47.8670
     47    1 Ti   22      8.076360      5.871739     11.004602  12.0000  47.8670
     48    1 Ti   22     11.411329      5.871750     13.983119  12.0000  47.8670
     49    1 Ti   22      1.579695     10.310371      7.782915  12.0000  47.8670
     50    1 Ti   22      4.916884     10.312584     17.191516  12.0000  47.8670
     51    1 Ti   22      4.833387     10.310983     10.627082  12.0000  47.8670
     52    1 Ti   22      1.665285     10.308655     14.373130  12.0000  47.8670
     53    1 Ti   22      4.828225      8.826081      7.319806  12.0000  47.8670
     54    1 Ti   22      1.673446      8.830885     17.687385  12.0000  47.8670
     55    1 Ti   22      1.583989      8.831461     11.001394  12.0000  47.8670
     56    1 Ti   22      4.915551      8.804775     13.938792  12.0000  47.8670
     57    1 Ti   22      8.078874     10.310415      7.782956  12.0000  47.8670
     58    1 Ti   22     11.413568     10.310330     17.208494  12.0000  47.8670
     59    1 Ti   22     11.329618     10.310327     10.624166  12.0000  47.8670
     60    1 Ti   22      8.160830     10.308300     14.372850  12.0000  47.8670
     61    1 Ti   22     11.324877      8.830771      7.306734  12.0000  47.8670
     62    1 Ti   22      8.162087      8.830880     17.686661  12.0000  47.8670
     63    1 Ti   22      8.075299      8.831531     11.000446  12.0000  47.8670
     64    1 Ti   22     11.411458      8.830968     13.985035  12.0000  47.8670
     65    2 O     8      1.582629      1.431625      9.581629   6.0000  15.9994
     66    2 O     8      1.667760      1.432353     16.202617   6.0000  15.9994
     67    2 O     8      4.908300      1.412490     15.402521   6.0000  15.9994
     68    2 O     8      4.828097      1.428925      8.792392   6.0000  15.9994
     69    2 O     8      4.828856      1.434845      6.237983   6.0000  15.9994
     70    2 O     8      4.905482      1.415550     12.812832   6.0000  15.9994
     71    2 O     8      1.665870      1.433404     18.763924   6.0000  15.9994
     72    2 O     8      1.586839      1.432543     12.148249   6.0000  15.9994
     73    2 O     8      0.357730     -0.046386      7.424237   6.0000  15.9994
     74    2 O     8      3.556409     -0.046448     10.817386   6.0000  15.9994
     75    2 O     8      2.796609     -0.046387      7.422680   6.0000  15.9994
     76    2 O     8      6.124287     -0.046422     10.799168   6.0000  15.9994
     77    2 O     8      6.140823     -0.046389     17.568573   6.0000  15.9994
     78    2 O     8      2.926759     -0.046417     14.154952   6.0000  15.9994
     79    2 O     8      3.694208     -0.046377     17.572326   6.0000  15.9994
     80    2 O     8      0.373470     -0.046415     14.185954   6.0000  15.9994
     81    2 O     8      8.095393      1.431371      9.581360   6.0000  15.9994
     82    2 O     8      8.172602      1.432193     16.202827   6.0000  15.9994
     83    2 O     8     11.401888      1.432216     15.406456   6.0000  15.9994
     84    2 O     8     11.324917      1.432771      8.791332   6.0000  15.9994
     85    2 O     8     11.326002      1.433364      6.230441   6.0000  15.9994
     86    2 O     8     11.403342      1.432124     12.830145   6.0000  15.9994
     87    2 O     8      8.168161      1.433560     18.763476   6.0000  15.9994
     88    2 O     8      8.091643      1.432602     12.147215   6.0000  15.9994
     89    2 O     8      6.862052     -0.046391      7.425381   6.0000  15.9994
     90    2 O     8     10.060442     -0.046439     10.825487   6.0000  15.9994
     91    2 O     8      9.301112     -0.046388      7.421226   6.0000  15.9994
     92    2 O     8     12.613865     -0.046432     10.805465   6.0000  15.9994
     93    2 O     8     12.633615     -0.046403     17.568840   6.0000  15.9994
     94    2 O     8      9.437544     -0.046421     14.156882   6.0000  15.9994
     95    2 O     8     10.195848     -0.046397     17.573492   6.0000  15.9994
     96    2 O     8      6.886706     -0.046469     14.181728   6.0000  15.9994
     97    2 O     8      1.585817      4.392948      9.583491   6.0000  15.9994
     98    2 O     8      1.662808      4.387252     16.201133   6.0000  15.9994
     99    2 O     8      4.907539      4.311443     15.394749   6.0000  15.9994
    100    2 O     8      4.828784      4.389152      8.796232   6.0000  15.9994
    101    2 O     8      4.828773      4.393443      6.243250   6.0000  15.9994
    102    2 O     8      4.903097      4.306329     12.744598   6.0000  15.9994
    103    2 O     8      1.671195      4.394719     18.760005   6.0000  15.9994
    104    2 O     8      1.587809      4.391226     12.148718   6.0000  15.9994
    105    2 O     8      0.357857      2.912989      7.425463   6.0000  15.9994
    106    2 O     8      3.552874      2.902121     10.807453   6.0000  15.9994
    107    2 O     8      2.796254      2.912241      7.423611   6.0000  15.9994
    108    2 O     8      6.128844      2.902009     10.786782   6.0000  15.9994
    109    2 O     8      6.140606      2.910699     17.565812   6.0000  15.9994
    110    2 O     8      2.920797      2.908128     14.150981   6.0000  15.9994
    111    2 O     8      3.694555      2.910551     17.569923   6.0000  15.9994
    112    2 O     8      0.370026      2.910059     14.185601   6.0000  15.9994
    113    2 O     8      8.091832      4.393159      9.582839   6.0000  15.9994
    114    2 O     8      8.177989      4.387324     16.200678   6.0000  15.9994
    115    2 O     8     11.401780      4.390505     15.405779   6.0000  15.9994
    116    2 O     8     11.324931      4.392203      8.791992   6.0000  15.9994
    117    2 O     8     11.325995      4.392220      6.230763   6.0000  15.9994
    118    2 O     8     11.402949      4.390896     12.829021   6.0000  15.9994
    119    2 O     8      8.162580      4.394976     18.758979   6.0000  15.9994
    120    2 O     8      8.091099      4.390831     12.146939   6.0000  15.9994
    121    2 O     8      6.862497      2.912089      7.426102   6.0000  15.9994
    122    2 O     8     10.060260      2.912384     10.824150   6.0000  15.9994
    123    2 O     8      9.300995      2.912959      7.422552   6.0000  15.9994
    124    2 O     8     12.614259      2.912423     10.805007   6.0000  15.9994
    125    2 O     8     12.633744      2.912530     17.569296   6.0000  15.9994
    126    2 O     8      9.440175      2.909805     14.155451   6.0000  15.9994
    127    2 O     8     10.195907      2.912593     17.573861   6.0000  15.9994
    128    2 O     8      6.893040      2.907716     14.178958   6.0000  15.9994
    129    2 O     8      1.585778      7.350090      9.583481   6.0000  15.9994
    130    2 O     8      1.662783      7.355668     16.201177   6.0000  15.9994
    131    2 O     8      4.907548      7.432044     15.394833   6.0000  15.9994
    132    2 O     8      4.828784      7.353801      8.796217   6.0000  15.9994
    133    2 O     8      4.828774      7.349815      6.243247   6.0000  15.9994
    134    2 O     8      4.903051      7.437141     12.744601   6.0000  15.9994
    135    2 O     8      1.671193      7.348520     18.760044   6.0000  15.9994
    136    2 O     8      1.587791      7.351986     12.148720   6.0000  15.9994
    137    2 O     8      0.357944      5.871603      7.425799   6.0000  15.9994
    138    2 O     8      3.557107      5.871525     10.822753   6.0000  15.9994
    139    2 O     8      2.795856      5.871602      7.423765   6.0000  15.9994
    140    2 O     8      6.123378      5.871576     10.803847   6.0000  15.9994
    141    2 O     8      6.143382      5.871605     17.509926   6.0000  15.9994
    142    2 O     8      2.903614      5.871588     14.168319   6.0000  15.9994
    143    2 O     8      3.693183      5.871580     17.520823   6.0000  15.9994
    144    2 O     8      0.365172      5.871568     14.186720   6.0000  15.9994
    145    2 O     8      8.091808      7.349938      9.582843   6.0000  15.9994
    146    2 O     8      8.178023      7.355639     16.200717   6.0000  15.9994
    147    2 O     8     11.401776      7.352522     15.405781   6.0000  15.9994
    148    2 O     8     11.324931      7.350789      8.791995   6.0000  15.9994
    149    2 O     8     11.325997      7.351043      6.230735   6.0000  15.9994
    150    2 O     8     11.402945      7.352288     12.829014   6.0000  15.9994
    151    2 O     8      8.162573      7.348277     18.759008   6.0000  15.9994
    152    2 O     8      8.091106      7.352379     12.146936   6.0000  15.9994
    153    2 O     8      6.862953      5.871610      7.426030   6.0000  15.9994
    154    2 O     8     10.059826      5.871535     10.826028   6.0000  15.9994
    155    2 O     8      9.300955      5.871601      7.422825   6.0000  15.9994
    156    2 O     8     12.614672      5.871565     10.806101   6.0000  15.9994
    157    2 O     8     12.634210      5.871595     17.567334   6.0000  15.9994
    158    2 O     8      9.444478      5.871549     14.158445   6.0000  15.9994
    159    2 O     8     10.195899      5.871591     17.572074   6.0000  15.9994
    160    2 O     8      6.910665      5.871575     14.188593   6.0000  15.9994
    161    2 O     8      1.582599     10.311400      9.581612   6.0000  15.9994
    162    2 O     8      1.667762     10.310581     16.202643   6.0000  15.9994
    163    2 O     8      4.908250     10.330620     15.402560   6.0000  15.9994
    164    2 O     8      4.828093     10.314038      8.792406   6.0000  15.9994
    165    2 O     8      4.828858     10.308402      6.237979   6.0000  15.9994
    166    2 O     8      4.905403     10.327654     12.812832   6.0000  15.9994
    167    2 O     8      1.665857     10.309852     18.763956   6.0000  15.9994
    168    2 O     8      1.586825     10.310646     12.148247   6.0000  15.9994
    169    2 O     8      0.357876      8.830225      7.425458   6.0000  15.9994
    170    2 O     8      3.552836      8.840950     10.807404   6.0000  15.9994
    171    2 O     8      2.796264      8.830979      7.423626   6.0000  15.9994
    172    2 O     8      6.128770      8.841065     10.786834   6.0000  15.9994
    173    2 O     8      6.140577      8.832512     17.565879   6.0000  15.9994
    174    2 O     8      2.920728      8.835026     14.151056   6.0000  15.9994
    175    2 O     8      3.694524      8.832667     17.569983   6.0000  15.9994
    176    2 O     8      0.370024      8.833089     14.185617   6.0000  15.9994
    177    2 O     8      8.095366     10.311724      9.581357   6.0000  15.9994
    178    2 O     8      8.172591     10.310752     16.202831   6.0000  15.9994
    179    2 O     8     11.401876     10.310825     15.406445   6.0000  15.9994
    180    2 O     8     11.324906     10.310236      8.791340   6.0000  15.9994
    181    2 O     8     11.326009     10.309875      6.230439   6.0000  15.9994
    182    2 O     8     11.403337     10.311062     12.830131   6.0000  15.9994
    183    2 O     8      8.168162     10.309692     18.763508   6.0000  15.9994
    184    2 O     8      8.091640     10.310604     12.147228   6.0000  15.9994
    185    2 O     8      6.862515      8.831126      7.426104   6.0000  15.9994
    186    2 O     8     10.060217      8.830721     10.824143   6.0000  15.9994
    187    2 O     8      9.301010      8.830257      7.422559   6.0000  15.9994
    188    2 O     8     12.614222      8.830690     10.805003   6.0000  15.9994
    189    2 O     8     12.633719      8.830663     17.569295   6.0000  15.9994
    190    2 O     8      9.440199      8.833311     14.155449   6.0000  15.9994
    191    2 O     8     10.195890      8.830608     17.573863   6.0000  15.9994
    192    2 O     8      6.893098      8.835387     14.178954   6.0000  15.9994



 SCF PARAMETERS         Density guess:                                   RESTART
                        --------------------------------------------------------
                        max_scf:                                             200
                        max_scf_history:                                       0
                        max_diis:                                              4
                        --------------------------------------------------------
                        eps_scf:                                        5.00E-07
                        eps_scf_history:                                0.00E+00
                        eps_diis:                                       1.00E-01
                        eps_eigval:                                     1.00E-05
                        --------------------------------------------------------
                        level_shift [a.u.]:                             0.000000
                        --------------------------------------------------------
                        Outer loop SCF in use 
                        No variables optimised in outer loop
                        eps_scf                                         5.00E-07
                        max_scf                                              100
                        No outer loop optimization
                        step_size                                       5.00E-01

 PW_GRID| Information for grid number                                          1
 PW_GRID| Grid distributed over                                    16 processors
 PW_GRID| Real space group dimensions                                    16    1
 PW_GRID| the grid is blocked:                                                NO
 PW_GRID| Cutoff [a.u.]                                                    160.0
 PW_GRID| spherical cutoff:                                                   NO
 PW_GRID|   Bounds   1            -72      71                Points:         144
 PW_GRID|   Bounds   2            -64      63                Points:         128
 PW_GRID|   Bounds   3           -144     143                Points:         288
 PW_GRID| Volume element (a.u.^3)  0.4888E-02     Volume (a.u.^3)     25946.4383
 PW_GRID| Grid span                                                    FULLSPACE
 PW_GRID|   Distribution                         Average         Max         Min
 PW_GRID|   G-Vectors                           331776.0      331776      331776
 PW_GRID|   G-Rays                                2304.0        2304        2304
 PW_GRID|   Real Space Points                   331776.0      331776      331776

 PW_GRID| Information for grid number                                          2
 PW_GRID| Number of the reference grid                                         1
 PW_GRID| Grid distributed over                                    16 processors
 PW_GRID| Real space group dimensions                                    16    1
 PW_GRID| the grid is blocked:                                                NO
 PW_GRID| Cutoff [a.u.]                                                     40.0
 PW_GRID| spherical cutoff:                                                   NO
 PW_GRID|   Bounds   1            -36      35                Points:          72
 PW_GRID|   Bounds   2            -32      31                Points:          64
 PW_GRID|   Bounds   3            -72      71                Points:         144
 PW_GRID| Volume element (a.u.^3)  0.3910E-01     Volume (a.u.^3)     25946.4383
 PW_GRID| Grid span                                                    FULLSPACE
 PW_GRID|   Distribution                         Average         Max         Min
 PW_GRID|   G-Vectors                            41472.0       41544       41400
 PW_GRID|   G-Rays                                 576.0         577         575
 PW_GRID|   Real Space Points                    41472.0       46080       36864

 PW_GRID| Information for grid number                                          3
 PW_GRID| Number of the reference grid                                         1
 PW_GRID| Grid distributed over                                    16 processors
 PW_GRID| Real space group dimensions                                    16    1
 PW_GRID| the grid is blocked:                                                NO
 PW_GRID| Cutoff [a.u.]                                                     10.0
 PW_GRID| spherical cutoff:                                                   NO
 PW_GRID|   Bounds   1            -18      17                Points:          36
 PW_GRID|   Bounds   2            -16      15                Points:          32
 PW_GRID|   Bounds   3            -36      35                Points:          72
 PW_GRID| Volume element (a.u.^3)  0.3128         Volume (a.u.^3)     25946.4383
 PW_GRID| Grid span                                                    FULLSPACE
 PW_GRID|   Distribution                         Average         Max         Min
 PW_GRID|   G-Vectors                             5184.0        5220        5148
 PW_GRID|   G-Rays                                 144.0         145         143
 PW_GRID|   Real Space Points                     5184.0        6912        4608

 PW_GRID| Information for grid number                                          4
 PW_GRID| Number of the reference grid                                         1
 PW_GRID| Grid distributed over                                    16 processors
 PW_GRID| Real space group dimensions                                    16    1
 PW_GRID| the grid is blocked:                                                NO
 PW_GRID| Cutoff [a.u.]                                                      2.5
 PW_GRID| spherical cutoff:                                                   NO
 PW_GRID|   Bounds   1             -9       8                Points:          18
 PW_GRID|   Bounds   2             -8       7                Points:          16
 PW_GRID|   Bounds   3            -18      17                Points:          36
 PW_GRID| Volume element (a.u.^3)   2.503         Volume (a.u.^3)     25946.4383
 PW_GRID| Grid span                                                    FULLSPACE
 PW_GRID|   Distribution                         Average         Max         Min
 PW_GRID|   G-Vectors                              648.0         738         558
 PW_GRID|   G-Rays                                  36.0          41          31
 PW_GRID|   Real Space Points                      648.0        1152         576

 POISSON| Solver                                                        PERIODIC
 POISSON| Periodicity                                                        XYZ

 RS_GRID| Information for grid number                                          1
 RS_GRID|   Bounds   1            -72      71                Points:         144
 RS_GRID|   Bounds   2            -64      63                Points:         128
 RS_GRID|   Bounds   3           -144     143                Points:         288
 RS_GRID| Real space distribution over                                 16 groups
 RS_GRID| Real space distribution along direction                              3
 RS_GRID| Border size                                                         28
 RS_GRID|   Distribution                         Average         Max         Min
 RS_GRID|   Planes                                  74.0          74          74

 RS_GRID| Information for grid number                                          2
 RS_GRID|   Bounds   1            -36      35                Points:          72
 RS_GRID|   Bounds   2            -32      31                Points:          64
 RS_GRID|   Bounds   3            -72      71                Points:         144
 RS_GRID| Real space distribution over                                 16 groups
 RS_GRID| Real space distribution along direction                              3
 RS_GRID| Border size                                                         28
 RS_GRID|   Distribution                         Average         Max         Min
 RS_GRID|   Planes                                  65.0          65          65

 RS_GRID| Information for grid number                                          3
 RS_GRID|   Bounds   1            -18      17                Points:          36
 RS_GRID|   Bounds   2            -16      15                Points:          32
 RS_GRID|   Bounds   3            -36      35                Points:          72
 RS_GRID| Real space fully replicated
 RS_GRID| Group size                                                           1

 RS_GRID| Information for grid number                                          4
 RS_GRID|   Bounds   1             -9       8                Points:          18
 RS_GRID|   Bounds   2             -8       7                Points:          16
 RS_GRID|   Bounds   3            -18      17                Points:          36
 RS_GRID| Real space fully replicated
 RS_GRID| Group size                                                           1

 Spin 1

 Number of electrons:                                                        769
 Number of occupied orbitals:                                                769
 Number of molecular orbitals:                                               769

 Spin 2

 Number of electrons:                                                        768
 Number of occupied orbitals:                                                768
 Number of molecular orbitals:                                               768

 Number of orbital functions:                                               3328
 Number of independent orbital functions:                                   3328

 Extrapolation method: initial_guess

 *** WARNING in qs_initial_guess.F:309 :: User requested to restart the    ***
 *** wavefunction from the file named: PROJECT-RESTART.wfn. This file does ***
 *** not exist. Please check the existence of the file or change properly  ***
 *** the value of the keyword WFN_RESTART_FILE_NAME. Calculation continues ***
 *** using ATOMIC GUESS.                                                   ***


 Atomic guess: The first density matrix is obtained in terms of atomic orbitals
               and electronic configurations assigned to each atomic kind

 Guess for atomic kind: Ti

 Electronic structure
    Total number of core electrons                                         10.00
    Total number of valence electrons                                      12.00
    Total number of electrons                                              22.00
    Multiplicity                                                   not specified
    S   [  2.00  2.00] 2.00  2.00
    P   [  6.00] 6.00
    D      2.00
 

 *******************************************************************************
                  Iteration          Convergence                     Energy [au]
 *******************************************************************************
                          1         2.59099                     -56.573945749309
                          2        0.737518                     -57.461623245624
                          3        0.123244E-01                 -57.676656834797
                          4        0.338536E-02                 -57.676690535970
                          5        0.252157E-03                 -57.676697146183
                          6        0.162704E-05                 -57.676697160103
                          7        0.846593E-06                 -57.676697160104

 Energy components [Hartree]           Total Energy ::          -57.676697160104
                                        Band Energy ::          -13.440549799540
                                     Kinetic Energy ::           25.008468428382
                                   Potential Energy ::          -82.685165588485
                                      Virial (-V/T) ::            3.306286661467
                                        Core Energy ::          -97.155838374470
                                          XC Energy ::           -6.919409696495
                                     Coulomb Energy ::           46.398550910862
                       Total Pseudopotential Energy ::         -122.259340742081
                       Local Pseudopotential Energy ::         -118.928992669456
                    Nonlocal Pseudopotential Energy ::           -3.330348072625
                                        Confinement ::            0.950339392289

 Orbital energies  State     L     Occupation   Energy[a.u.]          Energy[eV]

                       1     0          2.000      -2.312566          -62.928123
                       2     0          2.000      -0.123060           -3.348633
 
                       1     1          6.000      -1.385567          -37.703193
 
                       1     2          2.000      -0.127948           -3.481643
 

 Total Electron Density at R=0:                                         0.004726

 Guess for atomic kind: O

 Electronic structure
    Total number of core electrons                                          2.00
    Total number of valence electrons                                       6.00
    Total number of electrons                                               8.00
    Multiplicity                                                   not specified
    S   [  2.00] 2.00
    P      4.00
 

 *******************************************************************************
                  Iteration          Convergence                     Energy [au]
 *******************************************************************************
                          1        0.702811                     -15.577904332270
                          2        0.612408                     -15.588447180504
                          3        0.955344E-02                 -15.655871208406
                          4        0.223754E-02                 -15.655885053552
                          5        0.157183E-02                 -15.655885461027
                          6        0.124953E-02                 -15.655885607150
                          7        0.312011E-06                 -15.655885858066

 Energy components [Hartree]           Total Energy ::          -15.655885858066
                                        Band Energy ::           -2.983128125584
                                     Kinetic Energy ::           11.754765134683
                                   Potential Energy ::          -27.410650992750
                                      Virial (-V/T) ::            2.331875684345
                                        Core Energy ::          -26.153522949072
                                          XC Energy ::           -3.157392363346
                                     Coulomb Energy ::           13.655029454351
                       Total Pseudopotential Energy ::          -37.943026860963
                       Local Pseudopotential Energy ::          -39.220419683052
                    Nonlocal Pseudopotential Energy ::            1.277392822089
                                        Confinement ::            0.347387772086

 Orbital energies  State     L     Occupation   Energy[a.u.]          Energy[eV]

                       1     0          2.000      -0.861522          -23.443215
 
                       1     1          4.000      -0.315021           -8.572154
 

 Total Electron Density at R=0:                                         0.000093

 Spin 1
 Re-scaling the density matrix to get the right number of electrons for spin 1
                  # Electrons              Trace(P)               Scaling factor
                          769               768.000                        1.001

 Spin 2
 Re-scaling the density matrix to get the right number of electrons for spin 2
                  # Electrons              Trace(P)               Scaling factor
                          768               768.000                        1.000


 SCF WAVEFUNCTION OPTIMIZATION

  ----------------------------------- OT ---------------------------------------
  Minimizer      : DIIS                : direct inversion
                                         in the iterative subspace
                                         using   7 DIIS vectors
                                         safer DIIS on
  Preconditioner : FULL_ALL            : diagonalization, state selective
  Precond_solver : DEFAULT
  stepsize       :    0.15000000                  energy_gap     :    0.01000000
  eps_taylor     :   0.10000E-15                  max_taylor     :             4
  ----------------------------------- OT ---------------------------------------

  Step     Update method      Time    Convergence         Total energy    Change
  ------------------------------------------------------------------------------
     1 OT DIIS     0.15E+00    7.9     0.01278987     -5649.8736717965 -5.65E+03
     2 OT DIIS     0.15E+00    6.3     0.04051788     -5673.3782478102 -2.35E+01
     3 OT DIIS     0.15E+00    6.4     0.01212401     -5733.2268129454 -5.98E+01
     4 OT DIIS     0.15E+00    6.5     0.03256748     -5722.0740398641  1.12E+01
     5 OT DIIS     0.15E+00    6.1     0.00811980     -5755.2927412603 -3.32E+01
     6 OT DIIS     0.15E+00    6.2     0.00801242     -5762.3396387238 -7.05E+00
     7 OT DIIS     0.15E+00    6.3     0.00360953     -5768.9362015600 -6.60E+00
     8 OT DIIS     0.15E+00    6.3     0.00268954     -5771.6301382724 -2.69E+00
     9 OT DIIS     0.15E+00    6.2     0.00149954     -5773.9259222104 -2.30E+00
    10 OT DIIS     0.15E+00    6.2     0.00114972     -5775.4219278454 -1.50E+00
    11 OT DIIS     0.15E+00    6.3     0.00085076     -5776.1971833661 -7.75E-01
    12 OT DIIS     0.15E+00    6.4     0.00065777     -5776.8498794512 -6.53E-01
    13 OT DIIS     0.15E+00    6.5     0.00055717     -5777.1690162749 -3.19E-01
    14 OT DIIS     0.15E+00    6.4     0.00040169     -5777.4642477554 -2.95E-01
    15 OT DIIS     0.15E+00    6.4     0.00033489     -5777.6200885183 -1.56E-01
    16 OT DIIS     0.15E+00    6.1     0.00027095     -5777.7657937574 -1.46E-01
    17 OT DIIS     0.15E+00    6.5     0.00023810     -5777.8493824823 -8.36E-02
    18 OT DIIS     0.15E+00    6.5     0.00021459     -5777.9194823835 -7.01E-02
    19 OT DIIS     0.15E+00    6.3     0.00020144     -5777.9685615574 -4.91E-02
    20 OT DIIS     0.15E+00    6.5     0.00019556     -5778.0107999797 -4.22E-02
    21 OT DIIS     0.15E+00    6.2     0.00019201     -5778.0413144646 -3.05E-02
    22 OT DIIS     0.15E+00    6.1     0.00019229     -5778.0598796716 -1.86E-02
    23 OT DIIS     0.15E+00    6.2     0.00019218     -5778.0656630081 -5.78E-03
    24 OT DIIS     0.15E+00    6.1     0.00019140     -5778.0711670801 -5.50E-03
    25 OT DIIS     0.15E+00    6.3     0.00019063     -5778.0729348132 -1.77E-03
    26 OT DIIS     0.15E+00    6.4     0.00018337     -5778.0719567215  9.78E-04
    27 OT SD       0.15E+00    6.3     0.00017609     -5778.0772697946 -5.31E-03
    28 OT DIIS     0.15E+00    6.3     0.00017647     -5778.1002371922 -2.30E-02
    29 OT DIIS     0.15E+00    6.3     0.00016282     -5778.0992803138  9.57E-04
    30 OT SD       0.15E+00    6.3     0.00015700     -5778.1024191056 -3.14E-03
    31 OT DIIS     0.15E+00    6.1     0.00015803     -5778.1208987803 -1.85E-02
    32 OT DIIS     0.15E+00    5.9     0.00015109     -5778.1210758424 -1.77E-04
    33 OT DIIS     0.15E+00    6.1     0.00014886     -5778.1264671218 -5.39E-03
    34 OT SD       0.15E+00    6.1     0.00014419     -5778.1260263221  4.41E-04
    35 OT SD       0.15E+00    6.2     0.00014498     -5778.1414772265 -1.55E-02
    36 OT SD       0.15E+00    6.1     0.00014717     -5778.1568454224 -1.54E-02
    37 OT SD       0.15E+00    6.2     0.00015143     -5778.1720188338 -1.52E-02
    38 OT DIIS     0.15E+00    6.2     0.00016124     -5778.1866285135 -1.46E-02
    39 OT DIIS     0.15E+00    6.3     0.00015568     -5778.2000238268 -1.34E-02
    40 OT DIIS     0.15E+00    6.2     0.00014622     -5778.2195827671 -1.96E-02
    41 OT DIIS     0.15E+00    6.3     0.00014150     -5778.2334359552 -1.39E-02
    42 OT DIIS     0.15E+00    5.8     0.00010734     -5778.2734914157 -4.01E-02
    43 OT DIIS     0.15E+00    6.1     0.00011068     -5778.2851985666 -1.17E-02
    44 OT DIIS     0.15E+00    6.1     0.00011050     -5778.2951100387 -9.91E-03
    45 OT DIIS     0.15E+00    6.1     0.00010585     -5778.3080092673 -1.29E-02
    46 OT DIIS     0.15E+00    6.0     0.00006032     -5778.3227299894 -1.47E-02
    47 OT DIIS     0.15E+00    6.1     0.00005088     -5778.3234846653 -7.55E-04
    48 OT DIIS     0.15E+00    6.2     0.00005772     -5778.3251653225 -1.68E-03
    49 OT DIIS     0.15E+00    6.1     0.00004235     -5778.3292028786 -4.04E-03
    50 OT DIIS     0.15E+00    6.2     0.00002986     -5778.3316070481 -2.40E-03
    51 OT DIIS     0.15E+00    6.2     0.00003382     -5778.3329868897 -1.38E-03
    52 OT DIIS     0.15E+00    6.1     0.00002635     -5778.3342643609 -1.28E-03
    53 OT DIIS     0.15E+00    6.1     0.00002494     -5778.3351044764 -8.40E-04
    54 OT DIIS     0.15E+00    6.1     0.00002416     -5778.3365590246 -1.45E-03
    55 OT DIIS     0.15E+00    6.0     0.00002355     -5778.3373098165 -7.51E-04
    56 OT DIIS     0.15E+00    6.0     0.00002318     -5778.3381327922 -8.23E-04
    57 OT DIIS     0.15E+00    6.2     0.00002286     -5778.3389489535 -8.16E-04
    58 OT DIIS     0.15E+00    6.2     0.00002273     -5778.3398285490 -8.80E-04
    59 OT DIIS     0.15E+00    6.3     0.00002265     -5778.3401210650 -2.93E-04
    60 OT DIIS     0.15E+00    6.2     0.00002265     -5778.3404927325 -3.72E-04
    61 OT SD       0.15E+00    6.2     0.00002267     -5778.3407433739 -2.51E-04
    62 OT SD       0.15E+00    6.0     0.00002270     -5778.3411375306 -3.94E-04
    63 OT SD       0.15E+00    6.0     0.00002276     -5778.3415328108 -3.95E-04
    64 OT SD       0.15E+00    6.1     0.00002286     -5778.3419296696 -3.97E-04
    65 OT SD       0.15E+00    6.1     0.00002301     -5778.3423284478 -3.99E-04
    66 OT SD       0.15E+00    6.1     0.00002329     -5778.3427291949 -4.01E-04
    67 OT SD       0.15E+00    6.3     0.00002383     -5778.3431313697 -4.02E-04
    68 OT SD       0.15E+00    6.3     0.00002495     -5778.3435329542 -4.02E-04
    69 OT SD       0.15E+00    6.3     0.00002730     -5778.3439285365 -3.96E-04
    70 OT SD       0.15E+00    6.3     0.00003208     -5778.3443044213 -3.76E-04
    71 OT SD       0.15E+00    6.6     0.00004122     -5778.3446277231 -3.23E-04
[...]
 flops    26 x    13 x   192         817609648128       0.0%    100.0%      0.0%
 flops    13 x    26 x   192         817609648128       0.0%    100.0%      0.0%
 flops    26 x    26 x   192         835279011840       0.0%    100.0%      0.0%
 flops   832 x   128 x   128        1173834694656       0.0%    100.0%      0.0%
 flops   832 x   193 x   832        1898177888256       0.0%    100.0%      0.0%
 flops   192 x   192 x   192        2477671317504       0.0%    100.0%      0.0%
 flops    13 x    13 x   832        3524468879360       0.0%    100.0%      0.0%
 flops    26 x    13 x   832        4030792663040       0.0%    100.0%      0.0%
 flops    13 x    26 x   832        4030792663040       0.0%    100.0%      0.0%
 flops    26 x    26 x   832        4117902131200       0.0%    100.0%      0.0%
 flops   192 x   192 x   832        5510447235072       0.0%    100.0%      0.0%
 flops   832 x   192 x   192        6747586560000       0.0%    100.0%      0.0%
 flops    13 x    32 x    13       12373309441792       0.0%    100.0%      0.0%
 flops   832 x   192 x   832       13218399387648       0.0%    100.0%      0.0%
 flops    26 x    32 x    13       14206077743104       0.0%    100.0%      0.0%
 flops    13 x    32 x    26       14206077743104       0.0%    100.0%      0.0%
 flops    26 x    32 x    26       14416511762432       0.0%    100.0%      0.0%
 flops inhomo. stacks                           0       0.0%      0.0%      0.0%
 flops total                       115.320930E+12       0.0%    100.0%      0.0%
 flops max/rank                      7.321730E+12       0.0%    100.0%      0.0%
 matmuls inhomo. stacks                         0       0.0%      0.0%      0.0%
 matmuls total                         2929928336       0.0%    100.0%      0.0%
 number of processed stacks               4427942       0.0%    100.0%      0.0%
 average stack size                                     0.0     661.7       0.0
 marketing flops                   170.454166E+12
 -------------------------------------------------------------------------------
 # multiplications                          23348
 max memory usage/rank               1.006584E+09
 # max total images/rank                        1
 # max 3D layers                                1
 # MPI messages exchanged                 2241408
 MPI messages size (bytes):
  total size                         2.448864E+12
  min size                           0.000000E+00
  max size                           5.537792E+06
  average size                       1.092556E+06
 MPI breakdown and total messages size (bytes):
             size <=      128              509004                   624192
       128 < size <=     8192                5880                 18119904
      8192 < size <=    32768               53148                715372032
     32768 < size <=   131072              236688              29607661104
    131072 < size <=  4194304             1158624             910294392408
   4194304 < size <= 16777216              278064            1508455027248
  16777216 < size                               0                        0
 -------------------------------------------------------------------------------
 -                                                                             -
 -                      DBCSR MESSAGE PASSING PERFORMANCE                      -
 -                                                                             -
 -------------------------------------------------------------------------------
 ROUTINE             CALLS      AVE VOLUME [Bytes]
 MP_Bcast              145                     12.
 MP_Allreduce       118611                     31.
 MP_Alltoall        104085                 616464.
 MP_ISend           373408                 414751.
 MP_IRecv           373408                 413922.
 -------------------------------------------------------------------------------

 -------------------------------------------------------------------------------
 -                                                                             -
 -                                DBM STATISTICS                               -
 -                                                                             -
 -------------------------------------------------------------------------------
    M  x    N  x    K                                          COUNT     PERCENT
 -------------------------------------------------------------------------------

 -------------------------------------------------------------------------------
 -                                                                             -
 -                                GRID STATISTICS                              -
 -                                                                             -
 -------------------------------------------------------------------------------
 LP    KERNEL             BACKEND                              COUNT     PERCENT
 5     collocate ortho    REF                               55436082      25.64%
 5     integrate ortho    REF                               55185240      25.52%
 6     collocate ortho    REF                               26532818      12.27%
 6     integrate ortho    REF                               26412760      12.22%
 4     collocate ortho    REF                               26380770      12.20%
 4     integrate ortho    REF                               26261400      12.15%
 0     collocate general  REF                                   6144       0.00%
 0     integrate general  REF                                   6144       0.00%
 2     collocate ortho    REF                                   5120       0.00%
 3     collocate ortho    REF                                   3072       0.00%
 -------------------------------------------------------------------------------

 MEMORY| Estimated peak process memory [MiB]                                 960

 -------------------------------------------------------------------------------
 ----                             MULTIGRID INFO                            ----
 -------------------------------------------------------------------------------
 count for grid        1:         346352          cutoff [a.u.]          160.00
 count for grid        2:         226838          cutoff [a.u.]           40.00
 count for grid        3:         140604          cutoff [a.u.]           10.00
 count for grid        4:           8704          cutoff [a.u.]            2.50
 total gridlevel count  :         722498

 -------------------------------------------------------------------------------
 -                                                                             -
 -                         MESSAGE PASSING PERFORMANCE                         -
 -                                                                             -
 -------------------------------------------------------------------------------

 ROUTINE             CALLS      AVE VOLUME [Bytes]
 MP_Group                4
 MP_Bcast            43720                   9111.
 MP_Allreduce       113128                   1129.
 MP_Sync              1503
 MP_Alltoall          5127               10587479.
 MP_SendRecv         18780                 106102.
 MP_ISendRecv        13200                  32256.
 MP_Wait             59572
 MP_comm_split         531
 MP_ISend            39240                 303361.
 MP_IRecv            39240                 303371.
 MP_Recv               990                 851968.
 MP_Write_All            8                 606720.
 -------------------------------------------------------------------------------


 -------------------------------------------------------------------------------
 -                                                                             -
 -                           R E F E R E N C E S                               -
 -                                                                             -
 -------------------------------------------------------------------------------
 
 CP2K version 2023.1, the CP2K developers group (2023).
 CP2K is freely available from https://www.cp2k.org/ .

 Kuehne,Thomas D.; Iannuzzi,Marcella; Del Ben,Mauro;
 Rybkin,Vladimir V.; Seewald,Patrick; Stein,Frederick; Laino,Teodoro;
 Khaliullin,Rustam Z.; Schuett,Ole; Schiffmann,Florian; Golze,Dorothea;
 Wilhelm,Jan; Chulkov,Sergey; Bani-Hashemian,Mohammad Hossein;
 Weber,Valery; Borstnik,Urban; Taillefumier,Mathieu;
 Jakobovits,Alice Shoshana; Lazzaro,Alfio; Pabst,Hans; Mueller,Tiziano;
 Schade,Robert; Guidon,Manuel; Andermatt,Samuel; Holmberg,Nico;
 Schenter,Gregory K.; Hehn,Anna; Bussy,Augustin; Belleflamme,Fabian;
 Tabacchi,Gloria; Gloess,Andreas; Lass,Michael; Bethune,Iain;
 Mundy,Christopher J.; Plessl,Christian; Watkins,Matt;
 VandeVondele,Joost; Krack,Matthias; Hutter,Juerg. 
 The Journal of Chemical Physics, 152 (19), (2020). 
 CP2K: An electronic structure and molecular dynamics software package -
 Quickstep: Efficient and accurate electronic structure calculations.
 https://doi.org/10.1063/5.0007045

 Goerigk, Lars; Hansen, Andreas; Bauer, Christoph; Ehrlich, Stephan;
 Najibi, Asim; Grimme, Stefan. , 19 (48), (2017). 
 A look at the density functional theory zoo with the advanced GMTKN55 database
 for general main group thermochemistry, kinetics and noncovalent interactions.
 https://doi.org/10.1039/C7CP04913G

 Schuett, Ole; Messmer, Peter; Hutter, Juerg; VandeVondele, Joost. 
 Electronic Structure Calculations on Graphics Processing Units, John
 Wiley & Sons, Ltd, 173-190 (2016). 
 GPU-Accelerated Sparse Matrix-Matrix Multiplication for
 Linear Scaling Density Functional Theory.
 https://doi.org/10.1002/9781118670712.ch8

 Heinecke, A; Henry, G; Hutchinson, M; Pabst, H. 
 Proceedings of Intl. Supercomputing Conference, 981-991 (2016). 
 LIBXSMM: Accelerating Small Matrix Multiplications
 by Runtime Code Generation.
 https://doi.org/10.1109/SC.2016.83

 Borstnik, U; VandeVondele, J; Weber, V; Hutter, J. 
 PARALLEL COMPUTING, 40 (5-6), 47-58 (2014). 
 Sparse matrix multiplication: The distributed block-compressed sparse
 row library.
 https://doi.org/10.1016/j.parco.2014.03.012

 Hutter, J; Iannuzzi, M; Schiffmann, F; VandeVondele, J. 
 WIREs Comput Mol Sci., 4 (1), 15-25 (2014). 
 CP2K: atomistic simulations of condensed matter systems.
 https://doi.org/10.1002/wcms.1159

 Marek, A; Blum, V; Johanni, R; Havu, V; Lang, B; Auckenthaler, T;
 Heinecke, A; Bungartz, H; Lederer, H. 
 Journal of Physics: Condensed Matter, 26 (21), (2014). 
 The ELPA library: scalable parallel eigenvalue solutions for
 electronic structure
 theory and computational science.
 https://doi.org/10.1088/0953-8984/26/21/213201

 Grimme, S; Ehrlich, S; Goerigk, L. 
 JOURNAL OF COMPUTATIONAL CHEMISTRY, 32, 1456 (2011). 
 Effect of the damping function in dispersion corrected density functional theory.
 https://doi.org/10.1002/jcc.21759

 Grimme, S; Antony, J; Ehrlich, S; Krieg, H. 
 JOURNAL OF CHEMICAL PHYSICS, 132 (15), 154104 (2010). 
 A consistent and accurate ab initio parametrization of density
 functional dispersion correction (DFT-D) for the 94 elements H-Pu.
 https://doi.org/10.1063/1.3382344

 VandeVondele, J; Hutter, J. 
 JOURNAL OF CHEMICAL PHYSICS, 127 (11), 114105 (2007). 
 Gaussian basis sets for accurate calculations on molecular systems in
 gas and condensed phases.
 https://doi.org/10.1063/1.2770708

 Krack, M. 
 THEORETICAL CHEMISTRY ACCOUNTS, 114 (1-3), 145-152 (2005). 
 Pseudopotentials for H to Kr optimized for gradient-corrected
 exchange-correlation functionals.
 https://doi.org/10.1007/s00214-005-0655-y

 VandeVondele, J; Krack, M; Mohamed, F; Parrinello, M; Chassaing, T;
 Hutter, J. COMPUTER PHYSICS COMMUNICATIONS, 167 (2), 103-128 (2005). 
 QUICKSTEP: Fast and accurate density functional calculations using a
 mixed Gaussian and plane waves approach.
 https://doi.org/10.1016/j.cpc.2004.12.014

 Frigo, M; Johnson, SG. 
 PROCEEDINGS OF THE IEEE, 93 (2), 216-231 (2005). 
 The design and implementation of FFTW3.
 https://doi.org/10.1109/JPROC.2004.840301

 VandeVondele, J; Hutter, J. 
 JOURNAL OF CHEMICAL PHYSICS, 118 (10), 4365-4369 (2003). 
 An efficient orbital transformation method for electronic structure
 calculations.
 https://doi.org/10.1063/1.1543154

 Hartwigsen, C; Goedecker, S; Hutter, J. 
 PHYSICAL REVIEW B, 58 (7), 3641-3662 (1998). 
 Relativistic separable dual-space Gaussian pseudopotentials from H to Rn.
 https://doi.org/10.1103/PhysRevB.58.3641

 Dudarev, SL; Botton, GA; Savrasov, SY; Humphreys, CJ; Sutton, AP. 
 PHYSICAL REVIEW B, 57 (3), 1505-1509 (1998). 
 Electron-energy-loss spectra and the structural stability of
 nickel oxide: An LSDA+U study.
 https://doi.org/10.1103/PhysRevB.57.1505

 Lippert, G; Hutter, J; Parrinello, M. 
 MOLECULAR PHYSICS, 92 (3), 477-487 (1997). 
 A hybrid Gaussian and plane wave density functional scheme.
 https://doi.org/10.1080/002689797170220

 Dudarev, SL; Manh, DN; Sutton, AP. 
 PHILOSOPHICAL MAGAZINE B, 75 (5), 613-628 (1997). 
 Effect of Mott-Hubbard correlations on the electronic
 structure and structural stability of uranium dioxide.
 https://doi.org/10.1080/13642819708202343

 Perdew, JP; Burke, K; Ernzerhof, M. 
 PHYSICAL REVIEW LETTERS, 77 (18), 3865-3868 (1996). 
 Generalized gradient approximation made simple.
 https://doi.org/10.1103/PhysRevLett.77.3865

 Goedecker, S; Teter, M; Hutter, J. 
 PHYSICAL REVIEW B, 54 (3), 1703-1710 (1996). 
 Separable dual-space Gaussian pseudopotentials.
 https://doi.org/10.1103/PhysRevB.54.1703


 -------------------------------------------------------------------------------
 -                                                                             -
 -                                T I M I N G                                  -
 -                                                                             -
 -------------------------------------------------------------------------------
 SUBROUTINE                       CALLS  ASD         SELF TIME        TOTAL TIME
                                MAXIMUM       AVERAGE  MAXIMUM  AVERAGE  MAXIMUM
 CP2K                                 1  1.0    0.018    0.022 1644.284 1644.308
 qs_energies                          1  2.0    0.000    0.000 1643.740 1643.769
 scf_env_do_scf                       1  3.0    0.001    0.001 1409.583 1409.604
 scf_env_do_scf_inner_loop          220  4.0    0.006    0.014 1393.593 1395.103
 qs_ks_update_qs_env                222  5.0    0.002    0.002  792.433  793.232
 rebuild_ks_matrix                  220  6.0    0.004    0.008  791.309  792.109
 qs_ks_build_kohn_sham_matrix       220  7.0    0.044    0.049  791.305  792.105
 qs_rho_update_rho_low              221  5.0    0.003    0.004  416.550  417.948
 calculate_rho_elec                 442  6.0    0.785    0.801  416.547  417.945
 sum_up_and_integrate               220  8.0    1.370    1.474  408.892  409.263
 integrate_v_rspace                 440  9.0    0.013    0.014  407.519  407.861
 dbcsr_multiply_generic           23348  9.5    0.951    0.991  402.459  404.686
 grid_integrate_task_list           440 10.0  338.807  363.941  338.807  363.941
 grid_collocate_task_list           442  7.0  325.201  347.579  325.201  347.579
 multiply_cannon                  23348 10.5    1.544    1.624  294.247  302.663
 multiply_cannon_loop             23348 11.5    0.834    0.878  281.454  289.380
 plus_u                             220  8.0    0.010    0.012  286.611  286.991
 lowdin                             220  9.0    0.057    0.077  286.601  286.979
 scf_post_calculation_gpw             1  3.0    0.000    0.001  228.662  228.698
 multiply_cannon_multrec          93392 12.5  194.601  205.458  194.937  205.814
 qs_scf_new_mos                     220  5.0    0.001    0.002  186.656  187.539
 qs_scf_loop_do_ot                  220  6.0    0.004    0.007  186.655  187.538
 ot_scf_mini                        220  7.0    0.013    0.016  171.029  171.758
 cp_dbcsr_sm_fm_multiply            905  9.9    0.034    0.039  146.485  148.097
 pw_to_cube                           8  5.0    7.670  119.843  140.122  140.720
 ot_mini                           1090  7.1    0.008    0.008  125.469  126.204
 mp_bcast_l                           8  6.0  111.754  119.206  111.754  119.206
 mp_waitall_1                   1141036 13.8  101.357  108.991  101.357  108.991
 cp_dbcsr_sm_fm_multiply_core       905 10.9    0.007    0.011   97.114   98.099
 qs_scf_post_occ_cubes                2  4.0    3.268    3.832   89.034   89.095
 mp_alltoall_d11v                 27345 12.5   66.194   79.244   66.194   79.244
 density_rs2pw                      442  7.0    0.024    0.026   66.403   78.450
 ot_eigensolver                       4  6.0    0.015    0.016   76.803   76.808
 make_m2s                         46696 10.5    0.633    0.704   74.505   76.421
 qs_ot_get_derivative               877  8.5    0.011    0.012   71.406   72.122
 cp_dbcsr_plus_fm_fm_t_native       442 10.0    0.016    0.018   66.825   70.354
 parallel_gemm_fm                   513  9.6    0.003    0.003   65.367   65.531
 parallel_gemm_fm_cosma             513 10.6   65.364   65.528   65.364   65.528
 multiply_cannon_metrocomm1       93392 12.5    0.335    0.373   59.238   65.495
 write_available_results              1  4.0    0.000    0.000   64.799   64.800
 write_mo_dependent_results           1  5.0    0.002    0.003   64.635   64.636
 calculate_projected_dos              2  6.0    0.261    2.885   61.601   64.225
 rs_pw_transfer                    3564  9.5    0.034    0.036   51.529   63.609
 make_images                      46696 11.5    1.798    1.937   57.817   59.773
 qs_vxc_create                      220  8.0    0.008    0.011   58.719   58.811
 xc_vxc_pw_create                   220  9.0    6.828    7.004   58.710   58.802
 qs_scf_post_unocc_cubes              2  4.0    2.254    3.013   57.450   57.487
 pw_transfer                       4671  9.2    0.241    0.289   56.432   57.302
 dbcsr_complete_redistribute       5603 11.4   23.927   24.248   52.851   56.399
 fft_wrap_pw1pw2                   4231 10.2    0.025    0.030   55.355   56.225
 ot_diis_step                       220  9.0    0.018    0.020   53.039   53.041
 fft_wrap_pw1pw2_160               1561 10.8    5.518    5.663   51.797   52.794
 copy_fm_to_dbcsr                  3424 10.5    0.039    0.047   47.355   51.046
 apply_preconditioner_dbcsr         444 10.0    0.003    0.004   47.732   48.506
 apply_all                          444 11.0    0.120    0.123   47.729   48.503
 rs_gather_matrices                 440 10.0    2.504    2.931   33.278   44.949
 mp_waitany                       39240 11.5   31.604   44.239   31.604   44.239
 rs_pw_transfer_RS2PW_160           452  9.0    4.382    4.669   31.661   43.565
 qs_ot_get_derivative_diag          659  9.6    0.022    0.024   41.148   41.852
 qs_ot_get_p                       1338  7.3    0.011    0.012   36.957   38.968
 fft3d_ps                          4231 12.2   22.694   23.593   38.083   38.727
 xc_rho_set_and_dset_create         220 10.0    3.578    3.698   38.414   38.719
 potential_pw2rs                    440 10.0    0.039    0.040   35.421   35.848
 copy_dbcsr_to_fm                  2179 10.2    0.046    0.053   31.638   32.900
 -------------------------------------------------------------------------------

 The number of warnings for this run is : 1
 
 -------------------------------------------------------------------------------
  **** **** ******  **  PROGRAM ENDED AT                 2023-07-26 15:24:54.700
 ***** ** ***  *** **   PROGRAM RAN ON                                    node04
 **    ****   ******    PROGRAM RAN BY                                       ywj
 ***** **    ** ** **   PROGRAM PROCESS ID                                  4610
  **** **  *******  **  PROGRAM STOPPED IN /home/ywj/bozai/work/1-TiO2/2-slab-11
                                           0/1-pure/4-deal/2-cube/k-1.0
