 DBCSR| CPU Multiplication driver                                           XSMM (U)
 DBCSR| Multrec recursion limit                                              512 (U)
 DBCSR| Multiplication stack size                                           1000 (D)
 DBCSR| Maximum elements for images                                    UNLIMITED (U)
 DBCSR| Multiplicative factor virtual images                                   1 (U)
 DBCSR| Use multiplication densification                                       T (D)
 DBCSR| Multiplication size stacks                                             3 (U)
 DBCSR| Use memory pool for CPU allocation                                     F (U)
 DBCSR| Number of 3D layers                                               SINGLE (U)
 DBCSR| Use MPI memory allocation                                              F (U)
 DBCSR| Use RMA algorithm                                                      F (U)
 DBCSR| Use Communication thread                                               T (U)
 DBCSR| Communication thread load                                             87 (D)
 DBCSR| MPI: My process id                                                     0
 DBCSR| MPI: Number of processes                                              16
 DBCSR| OMP: Current number of threads                                         1
 DBCSR| OMP: Max number of threads                                             1
 DBCSR| Split modifier for TAS multiplication algorithm                  1.0E+00 (U)


  **** **** ******  **  PROGRAM STARTED AT               2023-07-26 14:18:40.936
 ***** ** ***  *** **   PROGRAM STARTED ON                                node06
 **    ****   ******    PROGRAM STARTED BY                                   ywj
 ***** **    ** ** **   PROGRAM PROCESS ID                                   744
  **** **  *******  **  PROGRAM STARTED IN /home/ywj/bozai/work/1-TiO2/2-slab-11
                                           0/1-pure/4-deal/2-cube/0-0.0

 CP2K| version string:                                       CP2K version 2023.1
 CP2K| source code revision number:                                  git:b888bd8
 CP2K| cp2kflags: omp libint fftw3 libxc pexsi elpa parallel scalapack cosma xsm
 CP2K|            m max_contr=4 plumed2 spglib mkl sirius libvori libbqb libvdwx
 CP2K|            xc
 CP2K| is freely available from                            https://www.cp2k.org/
 CP2K| Program compiled at                           Fri Apr 7 12:39:25 CST 2023
 CP2K| Program compiled on                                                node01
 CP2K| Program compiled for                                   Linux-intel-x86_64
 CP2K| Data directory path                        /opt/software/cp2k-2023.1/data
 CP2K| Input file name                                            input-slab.inp
 
 GLOBAL| Force Environment number                                              1
 GLOBAL| Basis set file name            /home/ywj/bozai/Bootstrap/BASIS_SET-file
 GLOBAL| Potential file name            /home/ywj/bozai/Bootstrap/BASIS_SET-file
 GLOBAL| MM Potential file name                                     MM_POTENTIAL
 GLOBAL| Coordinate file name                                          0-0.0.xyz
 GLOBAL| Method name                                                        CP2K
 GLOBAL| Project name                                                    PROJECT
 GLOBAL| Run type                                                         ENERGY
 GLOBAL| FFT library                                                       FFTW3
 GLOBAL| Diagonalization library                                            ELPA
 GLOBAL| DGEMM library                                                      BLAS
 GLOBAL| Minimum number of eigenvectors for ELPA usage                        16
 GLOBAL| Orthonormality check for eigenvectors                          DISABLED
 GLOBAL| Matrix multiplication library                                     COSMA
 GLOBAL| All-to-all communication in single precision                          F
 GLOBAL| FFTs using library dependent lengths                                  F
 GLOBAL| Grid backend                                                       AUTO
 GLOBAL| Global print level                                               MEDIUM
 GLOBAL| MPI I/O enabled                                                       T
 GLOBAL| Total number of message passing processes                            16
 GLOBAL| Number of threads for this process                                    1
 GLOBAL| This output is from process                                           0
 GLOBAL| Stack size for threads created by OpenMP (OMP_STACKSIZE)        default
 GLOBAL| CPU model name            Intel(R) Xeon(R) Platinum 8350C CPU @ 2.60GHz
 GLOBAL| CPUID                                                              1003

 MEMORY| system memory details [Kb]
 MEMORY|                        rank 0           min           max       average
 MEMORY| MemTotal            263613336     263613336     263613336     263613336
 MEMORY| MemFree             246594612     246594612     246594984     246594751
 MEMORY| Buffers                123936        123936        123936        123936
 MEMORY| Cached                5841248       5841248       5841248       5841248
 MEMORY| Slab                   423720        423720        423720        423720
 MEMORY| SReclaimable           225976        225976        225976        225976
 MEMORY| MemLikelyFree       252785772     252785772     252786144     252785911


 *** Fundamental physical constants (SI units) ***

 *** Literature: B. J. Mohr and B. N. Taylor,
 ***             CODATA recommended values of the fundamental physical
 ***             constants: 2006, Web Version 5.1
 ***             http://physics.nist.gov/constants

 Speed of light in vacuum [m/s]                             2.99792458000000E+08
 Magnetic constant or permeability of vacuum [N/A**2]       1.25663706143592E-06
 Electric constant or permittivity of vacuum [F/m]          8.85418781762039E-12
 Planck constant (h) [J*s]                                  6.62606896000000E-34
 Planck constant (h-bar) [J*s]                              1.05457162825177E-34
 Elementary charge [C]                                      1.60217648700000E-19
 Electron mass [kg]                                         9.10938215000000E-31
 Electron g factor [ ]                                     -2.00231930436220E+00
 Proton mass [kg]                                           1.67262163700000E-27
 Fine-structure constant                                    7.29735253760000E-03
 Rydberg constant [1/m]                                     1.09737315685270E+07
 Avogadro constant [1/mol]                                  6.02214179000000E+23
 Boltzmann constant [J/K]                                   1.38065040000000E-23
 Atomic mass unit [kg]                                      1.66053878200000E-27
 Bohr radius [m]                                            5.29177208590000E-11

 *** Conversion factors ***

 [u] -> [a.u.]                                              1.82288848426455E+03
 [Angstrom] -> [Bohr] = [a.u.]                              1.88972613288564E+00
 [a.u.] = [Bohr] -> [Angstrom]                              5.29177208590000E-01
 [a.u.] -> [s]                                              2.41888432650478E-17
 [a.u.] -> [fs]                                             2.41888432650478E-02
 [a.u.] -> [J]                                              4.35974393937059E-18
 [a.u.] -> [N]                                              8.23872205491840E-08
 [a.u.] -> [K]                                              3.15774647902944E+05
 [a.u.] -> [kJ/mol]                                         2.62549961709828E+03
 [a.u.] -> [kcal/mol]                                       6.27509468713739E+02
 [a.u.] -> [Pa]                                             2.94210107994716E+13
 [a.u.] -> [bar]                                            2.94210107994716E+08
 [a.u.] -> [atm]                                            2.90362800883016E+08
 [a.u.] -> [eV]                                             2.72113838565563E+01
 [a.u.] -> [Hz]                                             6.57968392072181E+15
 [a.u.] -> [1/cm] (wave numbers)                            2.19474631370540E+05
 [a.u./Bohr**2] -> [1/cm]                                   5.14048714338585E+03
 

 CELL_TOP| Volume [angstrom^3]:                                      3844.865420
 CELL_TOP| Vector a [angstrom    12.994     0.000     0.000   |a| =    12.993800
 CELL_TOP| Vector b [angstrom     0.000    11.836     0.000   |b| =    11.836000
 CELL_TOP| Vector c [angstrom     0.000     0.000    25.000   |c| =    25.000000
 CELL_TOP| Angle (b,c), alpha [degree]:                                90.000000
 CELL_TOP| Angle (a,c), beta  [degree]:                                90.000000
 CELL_TOP| Angle (a,b), gamma [degree]:                                90.000000
 CELL_TOP| Numerically orthorhombic:                                         YES
 CELL_TOP| Periodicity                                                       XYZ
 
 GENERATE|  Preliminary Number of Bonds generated:                             0
 GENERATE|  Achieved consistency in connectivity generation.

 CELL| Volume [angstrom^3]:                                          3844.865420
 CELL| Vector a [angstrom]:      12.994     0.000     0.000   |a| =    12.993800
 CELL| Vector b [angstrom]:       0.000    11.836     0.000   |b| =    11.836000
 CELL| Vector c [angstrom]:       0.000     0.000    25.000   |c| =    25.000000
 CELL| Angle (b,c), alpha [degree]:                                    90.000000
 CELL| Angle (a,c), beta  [degree]:                                    90.000000
 CELL| Angle (a,b), gamma [degree]:                                    90.000000
 CELL| Numerically orthorhombic:                                             YES
 CELL| Periodicity                                                           XYZ

 CELL_REF| Volume [angstrom^3]:                                      3844.865420
 CELL_REF| Vector a [angstrom    12.994     0.000     0.000   |a| =    12.993800
 CELL_REF| Vector b [angstrom     0.000    11.836     0.000   |b| =    11.836000
 CELL_REF| Vector c [angstrom     0.000     0.000    25.000   |c| =    25.000000
 CELL_REF| Angle (b,c), alpha [degree]:                                90.000000
 CELL_REF| Angle (a,c), beta  [degree]:                                90.000000
 CELL_REF| Angle (a,b), gamma [degree]:                                90.000000
 CELL_REF| Numerically orthorhombic:                                         YES
 CELL_REF| Periodicity                                                       XYZ

 *******************************************************************************
 *******************************************************************************
 **                                                                           **
 **     #####                         ##              ##                      **
 **    ##   ##            ##          ##              ##                      **
 **   ##     ##                       ##            ######                    **
 **   ##     ##  ##   ##  ##   #####  ##  ##   ####   ##    #####    #####    **
 **   ##     ##  ##   ##  ##  ##      ## ##   ##      ##   ##   ##  ##   ##   **
 **   ##  ## ##  ##   ##  ##  ##      ####     ###    ##   ######   ######    **
 **    ##  ###   ##   ##  ##  ##      ## ##      ##   ##   ##       ##        **
 **     #######   #####   ##   #####  ##  ##  ####    ##    #####   ##        **
 **           ##                                                    ##        **
 **                                                                           **
 **                                                ... make the atoms dance   **
 **                                                                           **
 **            Copyright (C) by CP2K developers group (2000-2022)             **
 **                      J. Chem. Phys. 152, 194103 (2020)                    **
 **                                                                           **
 *******************************************************************************

 DFT| Spin unrestricted (spin-polarized) Kohn-Sham calculation               UKS
 DFT| Multiplicity                                                             2
 DFT| Number of spin states                                                    2
 DFT| Charge                                                                  -1
 DFT| Self-interaction correction (SIC)                                       NO
 DFT| Cutoffs: density                                              1.000000E-10
 DFT|          gradient                                             1.000000E-10
 DFT|          tau                                                  1.000000E-10
 DFT|          cutoff_smoothing_range                               0.000000E+00
 DFT| XC density smoothing                                                  NONE
 DFT| XC derivatives                                              SPLINE2_SMOOTH

 DFT+U| Method                                                            LOWDIN
 DFT+U| Check atomic kind information for details

 FUNCTIONAL| PBE:
 FUNCTIONAL| J.P.Perdew, K.Burke, M.Ernzerhof, Phys. Rev. Letter, vol. 77, n 18,
 FUNCTIONAL|  pp. 3865-3868, (1996){spin polarized}                             

 vdW POTENTIAL|                                                   Pair Potential
 vdW POTENTIAL|          DFT-D3 (Version 3.1)
 vdW POTENTIAL|          Potential Form: S. Grimme et al, JCP 132: 154104 (2010)
 vdW POTENTIAL|          Zero Damping
 vdW POTENTIAL|          Cutoff Radius [Bohr]:                             20.00
 vdW POTENTIAL|          s6 Scaling Factor:                               1.0000
 vdW POTENTIAL|          sr6 Scaling Factor:                              1.2170
 vdW POTENTIAL|          s8 Scaling Factor:                               0.7220
 vdW POTENTIAL|          Cutoff for CN calculation:                   0.1000E-05

 QS| Method:                                                                 GPW
 QS| Density plane wave grid type                        NON-SPHERICAL FULLSPACE
 QS| Number of grid levels:                                                    4
 QS| Density cutoff [a.u.]:                                                160.0
 QS| Using commensurate multigrids
 QS| Multi grid cutoff [a.u.]: 1) grid level                               160.0
 QS|                           2) grid level                                40.0
 QS|                           3) grid level                                10.0
 QS|                           4) grid level                                 2.5
 QS| Grid level progression factor:                                          4.0
 QS| Relative density cutoff [a.u.]:                                        20.0
 QS| Interaction thresholds: eps_pgf_orb:                                1.0E-06
 QS|                         eps_filter_matrix:                          0.0E+00
 QS|                         eps_core_charge:                            1.0E-14
 QS|                         eps_rho_gspace:                             1.0E-12
 QS|                         eps_rho_rspace:                             1.0E-12
 QS|                         eps_gvg_rspace:                             1.0E-06
 QS|                         eps_ppl:                                    1.0E-02
 QS|                         eps_ppnl:                                   1.0E-08


 ATOMIC KIND INFORMATION

  1. Atomic kind: Ti                                    Number of atoms:      64

     Orbital Basis Set                                        DZVP-MOLOPT-SR-GTH

       Number of orbital shell sets:                                           1
       Number of orbital shells:                                               8
       Number of primitive Cartesian functions:                                6
       Number of Cartesian basis functions:                                   31
       Number of spherical basis functions:                                   26
       Norm type:                                                              2

       Normalised Cartesian orbitals:

                        Set   Shell   Orbital            Exponent    Coefficient

                          1       1    2s                7.884570       0.015554
                                                         3.894698       0.963603
                                                         1.513589      -0.631435
                                                         0.596768      -0.343022
                                                         0.222222      -0.006534
                                                         0.077078       0.007652

                          1       2    3s                7.884570      -0.009340
                                                         3.894698       0.212624
                                                         1.513589      -0.258368
                                                         0.596768      -0.226206
                                                         0.222222       0.039438
                                                         0.077078       0.107179

                          1       3    4s                7.884570       0.276563
                                                         3.894698       0.105452
                                                         1.513589       0.085149
                                                         0.596768       0.882541
                                                         0.222222      -0.696223
                                                         0.077078       0.156638

                          1       4    3px               7.884570      -2.034794
                                                         3.894698       0.782008
                                                         1.513589       1.253903
                                                         0.596768       0.347823
                                                         0.222222       0.016778
                                                         0.077078      -0.000433
                          1       4    3py               7.884570      -2.034794
                                                         3.894698       0.782008
                                                         1.513589       1.253903
                                                         0.596768       0.347823
                                                         0.222222       0.016778
                                                         0.077078      -0.000433
                          1       4    3pz               7.884570      -2.034794
                                                         3.894698       0.782008
                                                         1.513589       1.253903
                                                         0.596768       0.347823
                                                         0.222222       0.016778
                                                         0.077078      -0.000433

                          1       5    4px               7.884570       0.376572
                                                         3.894698      -0.182875
                                                         1.513589      -0.474776
                                                         0.596768      -0.081757
                                                         0.222222       0.064432
                                                         0.077078       0.047279
                          1       5    4py               7.884570       0.376572
                                                         3.894698      -0.182875
                                                         1.513589      -0.474776
                                                         0.596768      -0.081757
                                                         0.222222       0.064432
                                                         0.077078       0.047279
                          1       5    4pz               7.884570       0.376572
                                                         3.894698      -0.182875
                                                         1.513589      -0.474776
                                                         0.596768      -0.081757
                                                         0.222222       0.064432
                                                         0.077078       0.047279

                          1       6    4dx2              7.884570       3.047350
                                                         3.894698       3.289529
                                                         1.513589       1.060616
                                                         0.596768       0.249930
                                                         0.222222       0.038806
                                                         0.077078       0.002319
                          1       6    4dxy              7.884570       5.278165
                                                         3.894698       5.697631
                                                         1.513589       1.837041
                                                         0.596768       0.432892
                                                         0.222222       0.067214
                                                         0.077078       0.004017
                          1       6    4dxz              7.884570       5.278165
                                                         3.894698       5.697631
                                                         1.513589       1.837041
                                                         0.596768       0.432892
                                                         0.222222       0.067214
                                                         0.077078       0.004017
                          1       6    4dy2              7.884570       3.047350
                                                         3.894698       3.289529
                                                         1.513589       1.060616
                                                         0.596768       0.249930
                                                         0.222222       0.038806
                                                         0.077078       0.002319
                          1       6    4dyz              7.884570       5.278165
                                                         3.894698       5.697631
                                                         1.513589       1.837041
                                                         0.596768       0.432892
                                                         0.222222       0.067214
                                                         0.077078       0.004017
                          1       6    4dz2              7.884570       3.047350
                                                         3.894698       3.289529
                                                         1.513589       1.060616
                                                         0.596768       0.249930
                                                         0.222222       0.038806
                                                         0.077078       0.002319

                          1       7    5dx2              7.884570      -2.119015
                                                         3.894698      -1.237751
                                                         1.513589      -0.746777
                                                         0.596768      -0.071514
                                                         0.222222       0.004086
                                                         0.077078       0.017595
                          1       7    5dxy              7.884570      -3.670241
                                                         3.894698      -2.143848
                                                         1.513589      -1.293455
                                                         0.596768      -0.123865
                                                         0.222222       0.007077
                                                         0.077078       0.030475
                          1       7    5dxz              7.884570      -3.670241
                                                         3.894698      -2.143848
                                                         1.513589      -1.293455
                                                         0.596768      -0.123865
                                                         0.222222       0.007077
                                                         0.077078       0.030475
                          1       7    5dy2              7.884570      -2.119015
                                                         3.894698      -1.237751
                                                         1.513589      -0.746777
                                                         0.596768      -0.071514
                                                         0.222222       0.004086
                                                         0.077078       0.017595
                          1       7    5dyz              7.884570      -3.670241
                                                         3.894698      -2.143848
                                                         1.513589      -1.293455
                                                         0.596768      -0.123865
                                                         0.222222       0.007077
                                                         0.077078       0.030475
                          1       7    5dz2              7.884570      -2.119015
                                                         3.894698      -1.237751
                                                         1.513589      -0.746777
                                                         0.596768      -0.071514
                                                         0.222222       0.004086
                                                         0.077078       0.017595

                          1       8    5fx3              7.884570      -0.342058
                                                         3.894698       0.375798
                                                         1.513589      -0.706469
                                                         0.596768      -0.229994
                                                         0.222222      -0.012723
                                                         0.077078       0.003932
                          1       8    5fx2y             7.884570      -0.764866
                                                         3.894698       0.840310
                                                         1.513589      -1.579712
                                                         0.596768      -0.514282
                                                         0.222222      -0.028450
                                                         0.077078       0.008792
                          1       8    5fx2z             7.884570      -0.764866
                                                         3.894698       0.840310
                                                         1.513589      -1.579712
                                                         0.596768      -0.514282
                                                         0.222222      -0.028450
                                                         0.077078       0.008792
                          1       8    5fxy2             7.884570      -0.764866
                                                         3.894698       0.840310
                                                         1.513589      -1.579712
                                                         0.596768      -0.514282
                                                         0.222222      -0.028450
                                                         0.077078       0.008792
                          1       8    5fxyz             7.884570      -1.324787
                                                         3.894698       1.455460
                                                         1.513589      -2.736142
                                                         0.596768      -0.890763
                                                         0.222222      -0.049276
                                                         0.077078       0.015229
                          1       8    5fxz2             7.884570      -0.764866
                                                         3.894698       0.840310
                                                         1.513589      -1.579712
                                                         0.596768      -0.514282
                                                         0.222222      -0.028450
                                                         0.077078       0.008792
                          1       8    5fy3              7.884570      -0.342058
                                                         3.894698       0.375798
                                                         1.513589      -0.706469
                                                         0.596768      -0.229994
                                                         0.222222      -0.012723
                                                         0.077078       0.003932
                          1       8    5fy2z             7.884570      -0.764866
                                                         3.894698       0.840310
                                                         1.513589      -1.579712
                                                         0.596768      -0.514282
                                                         0.222222      -0.028450
                                                         0.077078       0.008792
                          1       8    5fyz2             7.884570      -0.764866
                                                         3.894698       0.840310
                                                         1.513589      -1.579712
                                                         0.596768      -0.514282
                                                         0.222222      -0.028450
                                                         0.077078       0.008792
                          1       8    5fz3              7.884570      -0.342058
                                                         3.894698       0.375798
                                                         1.513589      -0.706469
                                                         0.596768      -0.229994
                                                         0.222222      -0.012723
                                                         0.077078       0.003932

       Atomic covalent radius [Angstrom]:                                  1.320

       Atomic van der Waals radius [Angstrom]:                             1.760

     GTH Potential information for                                   GTH-PBE-q12

       Description:                       Goedecker-Teter-Hutter pseudopotential
                                           Goedecker et al., PRB 54, 1703 (1996)
                                          Hartwigsen et al., PRB 58, 3641 (1998)
                                                      Krack, TCA 114, 145 (2005)

       Gaussian exponent of the core charge distribution:               3.462604
       Electronic configuration (s p d ...):                           4   6   2

       Parameters of the local part of the GTH pseudopotential:

                          rloc        C1          C2          C3          C4
                        0.380000    8.711442   -0.700287

       Parameters of the non-local part of the GTH pseudopotential:

                   l      r(l)      h(i,j,l)

                   0    0.337771    2.575264    3.692971
                                    3.692971   -4.767605
                   1    0.242531   -4.630541    8.870875
                                    8.870875  -10.496161
                   2    0.243317   -9.406653

     A DFT+U correction is applied to atoms of this atomic kind:
       Angular quantum momentum number L:                                      2
       U(eff) = (U - J) value in [eV]:                                     4.200

  2. Atomic kind: O                                     Number of atoms:     128

     Orbital Basis Set                                        DZVP-MOLOPT-SR-GTH

       Number of orbital shell sets:                                           1
       Number of orbital shells:                                               5
       Number of primitive Cartesian functions:                                5
       Number of Cartesian basis functions:                                   14
       Number of spherical basis functions:                                   13
       Norm type:                                                              2

       Normalised Cartesian orbitals:

                        Set   Shell   Orbital            Exponent    Coefficient

                          1       1    2s               10.389228       0.396646
                                                         3.849621       0.208811
                                                         1.388401      -0.301641
                                                         0.496955      -0.274061
                                                         0.162492      -0.033677

                          1       2    3s               10.389228       0.303673
                                                         3.849621       0.240943
                                                         1.388401      -0.313066
                                                         0.496955      -0.043055
                                                         0.162492       0.213991

                          1       3    3px              10.389228      -1.530415
                                                         3.849621      -1.371928
                                                         1.388401      -0.761951
                                                         0.496955      -0.253695
                                                         0.162492      -0.035541
                          1       3    3py              10.389228      -1.530415
                                                         3.849621      -1.371928
                                                         1.388401      -0.761951
                                                         0.496955      -0.253695
                                                         0.162492      -0.035541
                          1       3    3pz              10.389228      -1.530415
                                                         3.849621      -1.371928
                                                         1.388401      -0.761951
                                                         0.496955      -0.253695
                                                         0.162492      -0.035541

                          1       4    4px              10.389228      -0.565392
                                                         3.849621      -0.038231
                                                         1.388401      -0.382373
                                                         0.496955       0.179070
                                                         0.162492       0.122714
                          1       4    4py              10.389228      -0.565392
                                                         3.849621      -0.038231
                                                         1.388401      -0.382373
                                                         0.496955       0.179070
                                                         0.162492       0.122714
                          1       4    4pz              10.389228      -0.565392
                                                         3.849621      -0.038231
                                                         1.388401      -0.382373
                                                         0.496955       0.179070
                                                         0.162492       0.122714

                          1       5    4dx2             10.389228       1.867377
                                                         3.849621       0.670994
                                                         1.388401       1.353441
                                                         0.496955       0.273538
                                                         0.162492       0.006620
                          1       5    4dxy             10.389228       3.234392
                                                         3.849621       1.162195
                                                         1.388401       2.344229
                                                         0.496955       0.473781
                                                         0.162492       0.011466
                          1       5    4dxz             10.389228       3.234392
                                                         3.849621       1.162195
                                                         1.388401       2.344229
                                                         0.496955       0.473781
                                                         0.162492       0.011466
                          1       5    4dy2             10.389228       1.867377
                                                         3.849621       0.670994
                                                         1.388401       1.353441
                                                         0.496955       0.273538
                                                         0.162492       0.006620
                          1       5    4dyz             10.389228       3.234392
                                                         3.849621       1.162195
                                                         1.388401       2.344229
                                                         0.496955       0.473781
                                                         0.162492       0.011466
                          1       5    4dz2             10.389228       1.867377
                                                         3.849621       0.670994
                                                         1.388401       1.353441
                                                         0.496955       0.273538
                                                         0.162492       0.006620

       Atomic covalent radius [Angstrom]:                                  0.730

       Atomic van der Waals radius [Angstrom]:                             1.520

     GTH Potential information for                                    GTH-PBE-q6

       Description:                       Goedecker-Teter-Hutter pseudopotential
                                           Goedecker et al., PRB 54, 1703 (1996)
                                          Hartwigsen et al., PRB 58, 3641 (1998)
                                                      Krack, TCA 114, 145 (2005)

       Gaussian exponent of the core charge distribution:               8.360253
       Electronic configuration (s p d ...):                               2   4

       Parameters of the local part of the GTH pseudopotential:

                          rloc        C1          C2          C3          C4
                        0.244554  -16.667215    2.487311

       Parameters of the non-local part of the GTH pseudopotential:

                   l      r(l)      h(i,j,l)

                   0    0.220956   18.337458
                   1    0.211332


 MOLECULE KIND INFORMATION


 All atoms are their own molecule, skipping detailed information


 TOTAL NUMBERS AND MAXIMUM NUMBERS

  Total number of            - Atomic kinds:                                   2
                             - Atoms:                                        192
                             - Shell sets:                                   192
                             - Shells:                                      1152
                             - Primitive Cartesian functions:               1024
                             - Cartesian basis functions:                   3776
                             - Spherical basis functions:                   3328

  Maximum angular momentum of- Orbital basis functions:                        3
                             - Local part of the GTH pseudopotential:          2
                             - Non-local part of the GTH pseudopotential:      3


 MODULE QUICKSTEP: ATOMIC COORDINATES IN ANGSTROM

   Atom Kind Element         X             Y             Z       Z(eff)     Mass
      1    1 Ti   22      1.669330      1.433231      7.783341  12.0000  47.8670
      2    1 Ti   22      4.917947      1.433215     17.216746  12.0000  47.8670
      3    1 Ti   22      4.917811      1.433223     10.622453  12.0000  47.8670
      4    1 Ti   22      1.669399      1.433213     14.377647  12.0000  47.8670
      5    1 Ti   22      4.917784     -0.046262      7.304584  12.0000  47.8670
      6    1 Ti   22      1.669424     -0.046275     17.695552  12.0000  47.8670
      7    1 Ti   22      1.669368     -0.046296     11.005335  12.0000  47.8670
      8    1 Ti   22      4.917791     -0.046281     13.994782  12.0000  47.8670
      9    1 Ti   22      8.166224      1.433234      7.783347  12.0000  47.8670
     10    1 Ti   22     11.414853      1.433211     17.216720  12.0000  47.8670
     11    1 Ti   22     11.414713      1.433229     10.622468  12.0000  47.8670
     12    1 Ti   22      8.166298      1.433216     14.377651  12.0000  47.8670
     13    1 Ti   22     11.414685     -0.046272      7.304589  12.0000  47.8670
     14    1 Ti   22      8.166295     -0.046275     17.695547  12.0000  47.8670
     15    1 Ti   22      8.166277     -0.046295     11.005339  12.0000  47.8670
     16    1 Ti   22     11.414700     -0.046281     13.994774  12.0000  47.8670
     17    1 Ti   22      1.669094      4.392200      7.783361  12.0000  47.8670
     18    1 Ti   22      4.917944      4.392200     17.216748  12.0000  47.8670
     19    1 Ti   22      4.917796      4.392180     10.622424  12.0000  47.8670
     20    1 Ti   22      1.669407      4.392201     14.377643  12.0000  47.8670
     21    1 Ti   22      4.917827      2.912723      7.304585  12.0000  47.8670
     22    1 Ti   22      1.669423      2.912754     17.695550  12.0000  47.8670
     23    1 Ti   22      1.669363      2.912719     11.005318  12.0000  47.8670
     24    1 Ti   22      4.917793      2.912726     13.994789  12.0000  47.8670
     25    1 Ti   22      8.165995      4.392186      7.783353  12.0000  47.8670
     26    1 Ti   22     11.414841      4.392205     17.216719  12.0000  47.8670
     27    1 Ti   22     11.414695      4.392186     10.622437  12.0000  47.8670
     28    1 Ti   22      8.166305      4.392206     14.377645  12.0000  47.8670
     29    1 Ti   22     11.414739      2.912721      7.304591  12.0000  47.8670
     30    1 Ti   22      8.166303      2.912760     17.695539  12.0000  47.8670
     31    1 Ti   22      8.166265      2.912722     11.005314  12.0000  47.8670
     32    1 Ti   22     11.414703      2.912722     13.994786  12.0000  47.8670
     33    1 Ti   22      1.669280      7.351180      7.783311  12.0000  47.8670
     34    1 Ti   22      4.917919      7.351206     17.216762  12.0000  47.8670
     35    1 Ti   22      4.917781      7.351171     10.622455  12.0000  47.8670
     36    1 Ti   22      1.669401      7.351199     14.377633  12.0000  47.8670
     37    1 Ti   22      4.917773      5.871778      7.304551  12.0000  47.8670
     38    1 Ti   22      1.669420      5.871760     17.695554  12.0000  47.8670
     39    1 Ti   22      1.669359      5.871744     11.005329  12.0000  47.8670
     40    1 Ti   22      4.917800      5.871734     13.994765  12.0000  47.8670
     41    1 Ti   22      8.166185      7.351190      7.783319  12.0000  47.8670
     42    1 Ti   22     11.414824      7.351201     17.216734  12.0000  47.8670
     43    1 Ti   22     11.414684      7.351169     10.622465  12.0000  47.8670
     44    1 Ti   22      8.166294      7.351204     14.377641  12.0000  47.8670
     45    1 Ti   22     11.414672      5.871773      7.304560  12.0000  47.8670
     46    1 Ti   22      8.166290      5.871752     17.695549  12.0000  47.8670
     47    1 Ti   22      8.166252      5.871743     11.005344  12.0000  47.8670
     48    1 Ti   22     11.414709      5.871730     13.994762  12.0000  47.8670
     49    1 Ti   22      1.669134     10.310243      7.783345  12.0000  47.8670
     50    1 Ti   22      4.917937     10.310215     17.216737  12.0000  47.8670
     51    1 Ti   22      4.917800     10.310212     10.622457  12.0000  47.8670
     52    1 Ti   22      1.669392     10.310210     14.377644  12.0000  47.8670
     53    1 Ti   22      4.917821      8.830726      7.304609  12.0000  47.8670
     54    1 Ti   22      1.669407      8.830752     17.695553  12.0000  47.8670
     55    1 Ti   22      1.669374      8.830730     11.005364  12.0000  47.8670
     56    1 Ti   22      4.917787      8.830718     13.994763  12.0000  47.8670
     57    1 Ti   22      8.166041     10.310238      7.783368  12.0000  47.8670
     58    1 Ti   22     11.414844     10.310219     17.216711  12.0000  47.8670
     59    1 Ti   22     11.414702     10.310210     10.622472  12.0000  47.8670
     60    1 Ti   22      8.166289     10.310214     14.377648  12.0000  47.8670
     61    1 Ti   22     11.414726      8.830722      7.304606  12.0000  47.8670
     62    1 Ti   22      8.166289      8.830753     17.695546  12.0000  47.8670
     63    1 Ti   22      8.166278      8.830723     11.005373  12.0000  47.8670
     64    1 Ti   22     11.414701      8.830715     13.994757  12.0000  47.8670
     65    2 O     8      1.669530      1.432981      9.587715   6.0000  15.9994
     66    2 O     8      1.669606      1.433000     16.203379   6.0000  15.9994
     67    2 O     8      4.917965      1.433018     15.412374   6.0000  15.9994
     68    2 O     8      4.917545      1.432997      8.796759   6.0000  15.9994
     69    2 O     8      4.917662      1.433139      6.235454   6.0000  15.9994
     70    2 O     8      4.917962      1.433099     12.843876   6.0000  15.9994
     71    2 O     8      1.669542      1.433117     18.764679   6.0000  15.9994
     72    2 O     8      1.669412      1.433100     12.156249   6.0000  15.9994
     73    2 O     8      0.448570     -0.046437      7.429319   6.0000  15.9994
     74    2 O     8      3.639968     -0.046433     10.820614   6.0000  15.9994
     75    2 O     8      2.889367     -0.046327      7.429091   6.0000  15.9994
     76    2 O     8      6.195843     -0.046401     10.820308   6.0000  15.9994
     77    2 O     8      6.138535     -0.046380     17.570835   6.0000  15.9994
     78    2 O     8      2.947500     -0.046438     14.179614   6.0000  15.9994
     79    2 O     8      3.697761     -0.046393     17.570910   6.0000  15.9994
     80    2 O     8      0.391628     -0.046450     14.179696   6.0000  15.9994
     81    2 O     8      8.166443      1.432989      9.587727   6.0000  15.9994
     82    2 O     8      8.166497      1.433001     16.203386   6.0000  15.9994
     83    2 O     8     11.414874      1.433016     15.412352   6.0000  15.9994
     84    2 O     8     11.414446      1.432993      8.796771   6.0000  15.9994
     85    2 O     8     11.414568      1.433113      6.235460   6.0000  15.9994
     86    2 O     8     11.414852      1.433104     12.843873   6.0000  15.9994
     87    2 O     8      8.166458      1.433109     18.764671   6.0000  15.9994
     88    2 O     8      8.166305      1.433101     12.156244   6.0000  15.9994
     89    2 O     8      6.945482     -0.046416      7.429321   6.0000  15.9994
     90    2 O     8     10.136885     -0.046429     10.820624   6.0000  15.9994
     91    2 O     8      9.386274     -0.046346      7.429102   6.0000  15.9994
     92    2 O     8     12.692741     -0.046409     10.820300   6.0000  15.9994
     93    2 O     8     12.635456     -0.046374     17.570842   6.0000  15.9994
     94    2 O     8      9.444397     -0.046443     14.179612   6.0000  15.9994
     95    2 O     8     10.194658     -0.046404     17.570906   6.0000  15.9994
     96    2 O     8      6.888519     -0.046450     14.179706   6.0000  15.9994
     97    2 O     8      1.669485      4.392027      9.587743   6.0000  15.9994
     98    2 O     8      1.669589      4.392009     16.203371   6.0000  15.9994
     99    2 O     8      4.917978      4.392039     15.412367   6.0000  15.9994
    100    2 O     8      4.917521      4.392020      8.796717   6.0000  15.9994
    101    2 O     8      4.917591      4.392143      6.235471   6.0000  15.9994
    102    2 O     8      4.917946      4.392097     12.843858   6.0000  15.9994
    103    2 O     8      1.669536      4.392140     18.764690   6.0000  15.9994
    104    2 O     8      1.669420      4.392107     12.156243   6.0000  15.9994
    105    2 O     8      0.448334      2.912622      7.429360   6.0000  15.9994
    106    2 O     8      3.639961      2.912571     10.820606   6.0000  15.9994
    107    2 O     8      2.889138      2.912588      7.429014   6.0000  15.9994
    108    2 O     8      6.195865      2.912551     10.820341   6.0000  15.9994
    109    2 O     8      6.138534      2.912589     17.570831   6.0000  15.9994
    110    2 O     8      2.947507      2.912563     14.179626   6.0000  15.9994
    111    2 O     8      3.697735      2.912619     17.570892   6.0000  15.9994
    112    2 O     8      0.391631      2.912548     14.179679   6.0000  15.9994
    113    2 O     8      8.166398      4.392034      9.587733   6.0000  15.9994
    114    2 O     8      8.166480      4.392008     16.203372   6.0000  15.9994
    115    2 O     8     11.414889      4.392034     15.412348   6.0000  15.9994
    116    2 O     8     11.414415      4.392020      8.796734   6.0000  15.9994
    117    2 O     8     11.414505      4.392116      6.235481   6.0000  15.9994
    118    2 O     8     11.414836      4.392098     12.843863   6.0000  15.9994
    119    2 O     8      8.166454      4.392130     18.764694   6.0000  15.9994
    120    2 O     8      8.166326      4.392107     12.156246   6.0000  15.9994
    121    2 O     8      6.945223      2.912635      7.429360   6.0000  15.9994
    122    2 O     8     10.136872      2.912571     10.820618   6.0000  15.9994
    123    2 O     8      9.386050      2.912565      7.429022   6.0000  15.9994
    124    2 O     8     12.692770      2.912554     10.820338   6.0000  15.9994
    125    2 O     8     12.635440      2.912598     17.570841   6.0000  15.9994
    126    2 O     8      9.444400      2.912556     14.179630   6.0000  15.9994
    127    2 O     8     10.194631      2.912607     17.570888   6.0000  15.9994
    128    2 O     8      6.888528      2.912545     14.179688   6.0000  15.9994
    129    2 O     8      1.669528      7.351044      9.587707   6.0000  15.9994
    130    2 O     8      1.669585      7.351008     16.203362   6.0000  15.9994
    131    2 O     8      4.917980      7.351019     15.412374   6.0000  15.9994
    132    2 O     8      4.917542      7.351001      8.796746   6.0000  15.9994
    133    2 O     8      4.917636      7.351164      6.235409   6.0000  15.9994
    134    2 O     8      4.917958      7.351104     12.843828   6.0000  15.9994
    135    2 O     8      1.669539      7.351142     18.764701   6.0000  15.9994
    136    2 O     8      1.669399      7.351101     12.156275   6.0000  15.9994
    137    2 O     8      0.448462      5.871540      7.429303   6.0000  15.9994
    138    2 O     8      3.639973      5.871530     10.820574   6.0000  15.9994
    139    2 O     8      2.889269      5.871596      7.429098   6.0000  15.9994
    140    2 O     8      6.195844      5.871533     10.820329   6.0000  15.9994
    141    2 O     8      6.138522      5.871584     17.570826   6.0000  15.9994
    142    2 O     8      2.947506      5.871542     14.179646   6.0000  15.9994
    143    2 O     8      3.697737      5.871604     17.570866   6.0000  15.9994
    144    2 O     8      0.391627      5.871556     14.179677   6.0000  15.9994
    145    2 O     8      8.166436      7.351029      9.587713   6.0000  15.9994
    146    2 O     8      8.166475      7.351004     16.203369   6.0000  15.9994
    147    2 O     8     11.414886      7.351021     15.412353   6.0000  15.9994
    148    2 O     8     11.414444      7.351014      8.796758   6.0000  15.9994
    149    2 O     8     11.414549      7.351128      6.235410   6.0000  15.9994
    150    2 O     8     11.414843      7.351102     12.843834   6.0000  15.9994
    151    2 O     8      8.166454      7.351133     18.764693   6.0000  15.9994
    152    2 O     8      8.166302      7.351106     12.156279   6.0000  15.9994
    153    2 O     8      6.945381      5.871566      7.429307   6.0000  15.9994
    154    2 O     8     10.136876      5.871531     10.820586   6.0000  15.9994
    155    2 O     8      9.386161      5.871579      7.429118   6.0000  15.9994
    156    2 O     8     12.692742      5.871532     10.820328   6.0000  15.9994
    157    2 O     8     12.635436      5.871586     17.570839   6.0000  15.9994
    158    2 O     8      9.444403      5.871541     14.179648   6.0000  15.9994
    159    2 O     8     10.194628      5.871604     17.570871   6.0000  15.9994
    160    2 O     8      6.888521      5.871553     14.179682   6.0000  15.9994
    161    2 O     8      1.669555     10.309993      9.587729   6.0000  15.9994
    162    2 O     8      1.669602     10.310002     16.203368   6.0000  15.9994
    163    2 O     8      4.917966     10.310006     15.412362   6.0000  15.9994
    164    2 O     8      4.917492     10.309992      8.796746   6.0000  15.9994
    165    2 O     8      4.917609     10.310142      6.235493   6.0000  15.9994
    166    2 O     8      4.917969     10.310099     12.843842   6.0000  15.9994
    167    2 O     8      1.669544     10.310116     18.764724   6.0000  15.9994
    168    2 O     8      1.669406     10.310102     12.156289   6.0000  15.9994
    169    2 O     8      0.448403      8.830624      7.429439   6.0000  15.9994
    170    2 O     8      3.639988      8.830557     10.820610   6.0000  15.9994
    171    2 O     8      2.889156      8.830572      7.429001   6.0000  15.9994
    172    2 O     8      6.195846      8.830552     10.820308   6.0000  15.9994
    173    2 O     8      6.138527      8.830611     17.570825   6.0000  15.9994
    174    2 O     8      2.947503      8.830547     14.179638   6.0000  15.9994
    175    2 O     8      3.697756      8.830597     17.570885   6.0000  15.9994
    176    2 O     8      0.391622      8.830558     14.179697   6.0000  15.9994
    177    2 O     8      8.166464     10.309992      9.587736   6.0000  15.9994
    178    2 O     8      8.166493     10.310004     16.203373   6.0000  15.9994
    179    2 O     8     11.414869     10.310007     15.412337   6.0000  15.9994
    180    2 O     8     11.414401     10.309996      8.796758   6.0000  15.9994
    181    2 O     8     11.414510     10.310109      6.235486   6.0000  15.9994
    182    2 O     8     11.414856     10.310102     12.843846   6.0000  15.9994
    183    2 O     8      8.166456     10.310109     18.764719   6.0000  15.9994
    184    2 O     8      8.166297     10.310104     12.156289   6.0000  15.9994
    185    2 O     8      6.945302      8.830652      7.429427   6.0000  15.9994
    186    2 O     8     10.136888      8.830556     10.820619   6.0000  15.9994
    187    2 O     8      9.386074      8.830557      7.428998   6.0000  15.9994
    188    2 O     8     12.692744      8.830547     10.820303   6.0000  15.9994
    189    2 O     8     12.635438      8.830613     17.570838   6.0000  15.9994
    190    2 O     8      9.444397      8.830546     14.179639   6.0000  15.9994
    191    2 O     8     10.194654      8.830594     17.570880   6.0000  15.9994
    192    2 O     8      6.888517      8.830556     14.179703   6.0000  15.9994



 SCF PARAMETERS         Density guess:                                   RESTART
                        --------------------------------------------------------
                        max_scf:                                             200
                        max_scf_history:                                       0
                        max_diis:                                              4
                        --------------------------------------------------------
                        eps_scf:                                        5.00E-07
                        eps_scf_history:                                0.00E+00
                        eps_diis:                                       1.00E-01
                        eps_eigval:                                     1.00E-05
                        --------------------------------------------------------
                        level_shift [a.u.]:                             0.000000
                        --------------------------------------------------------
                        Outer loop SCF in use 
                        No variables optimised in outer loop
                        eps_scf                                         5.00E-07
                        max_scf                                              100
                        No outer loop optimization
                        step_size                                       5.00E-01

 PW_GRID| Information for grid number                                          1
 PW_GRID| Grid distributed over                                    16 processors
 PW_GRID| Real space group dimensions                                    16    1
 PW_GRID| the grid is blocked:                                                NO
 PW_GRID| Cutoff [a.u.]                                                    160.0
 PW_GRID| spherical cutoff:                                                   NO
 PW_GRID|   Bounds   1            -72      71                Points:         144
 PW_GRID|   Bounds   2            -64      63                Points:         128
 PW_GRID|   Bounds   3           -144     143                Points:         288
 PW_GRID| Volume element (a.u.^3)  0.4888E-02     Volume (a.u.^3)     25946.4383
 PW_GRID| Grid span                                                    FULLSPACE
 PW_GRID|   Distribution                         Average         Max         Min
 PW_GRID|   G-Vectors                           331776.0      331776      331776
 PW_GRID|   G-Rays                                2304.0        2304        2304
 PW_GRID|   Real Space Points                   331776.0      331776      331776

 PW_GRID| Information for grid number                                          2
 PW_GRID| Number of the reference grid                                         1
 PW_GRID| Grid distributed over                                    16 processors
 PW_GRID| Real space group dimensions                                    16    1
 PW_GRID| the grid is blocked:                                                NO
 PW_GRID| Cutoff [a.u.]                                                     40.0
 PW_GRID| spherical cutoff:                                                   NO
 PW_GRID|   Bounds   1            -36      35                Points:          72
 PW_GRID|   Bounds   2            -32      31                Points:          64
 PW_GRID|   Bounds   3            -72      71                Points:         144
 PW_GRID| Volume element (a.u.^3)  0.3910E-01     Volume (a.u.^3)     25946.4383
 PW_GRID| Grid span                                                    FULLSPACE
 PW_GRID|   Distribution                         Average         Max         Min
 PW_GRID|   G-Vectors                            41472.0       41544       41400
 PW_GRID|   G-Rays                                 576.0         577         575
 PW_GRID|   Real Space Points                    41472.0       46080       36864

 PW_GRID| Information for grid number                                          3
 PW_GRID| Number of the reference grid                                         1
 PW_GRID| Grid distributed over                                    16 processors
 PW_GRID| Real space group dimensions                                    16    1
 PW_GRID| the grid is blocked:                                                NO
 PW_GRID| Cutoff [a.u.]                                                     10.0
 PW_GRID| spherical cutoff:                                                   NO
 PW_GRID|   Bounds   1            -18      17                Points:          36
 PW_GRID|   Bounds   2            -16      15                Points:          32
 PW_GRID|   Bounds   3            -36      35                Points:          72
 PW_GRID| Volume element (a.u.^3)  0.3128         Volume (a.u.^3)     25946.4383
 PW_GRID| Grid span                                                    FULLSPACE
 PW_GRID|   Distribution                         Average         Max         Min
 PW_GRID|   G-Vectors                             5184.0        5220        5148
 PW_GRID|   G-Rays                                 144.0         145         143
 PW_GRID|   Real Space Points                     5184.0        6912        4608

 PW_GRID| Information for grid number                                          4
 PW_GRID| Number of the reference grid                                         1
 PW_GRID| Grid distributed over                                    16 processors
 PW_GRID| Real space group dimensions                                    16    1
 PW_GRID| the grid is blocked:                                                NO
 PW_GRID| Cutoff [a.u.]                                                      2.5
 PW_GRID| spherical cutoff:                                                   NO
 PW_GRID|   Bounds   1             -9       8                Points:          18
 PW_GRID|   Bounds   2             -8       7                Points:          16
 PW_GRID|   Bounds   3            -18      17                Points:          36
 PW_GRID| Volume element (a.u.^3)   2.503         Volume (a.u.^3)     25946.4383
 PW_GRID| Grid span                                                    FULLSPACE
 PW_GRID|   Distribution                         Average         Max         Min
 PW_GRID|   G-Vectors                              648.0         738         558
 PW_GRID|   G-Rays                                  36.0          41          31
 PW_GRID|   Real Space Points                      648.0        1152         576

 POISSON| Solver                                                        PERIODIC
 POISSON| Periodicity                                                        XYZ

 RS_GRID| Information for grid number                                          1
 RS_GRID|   Bounds   1            -72      71                Points:         144
 RS_GRID|   Bounds   2            -64      63                Points:         128
 RS_GRID|   Bounds   3           -144     143                Points:         288
 RS_GRID| Real space distribution over                                 16 groups
 RS_GRID| Real space distribution along direction                              3
 RS_GRID| Border size                                                         28
 RS_GRID|   Distribution                         Average         Max         Min
 RS_GRID|   Planes                                  74.0          74          74

 RS_GRID| Information for grid number                                          2
 RS_GRID|   Bounds   1            -36      35                Points:          72
 RS_GRID|   Bounds   2            -32      31                Points:          64
 RS_GRID|   Bounds   3            -72      71                Points:         144
 RS_GRID| Real space distribution over                                 16 groups
 RS_GRID| Real space distribution along direction                              3
 RS_GRID| Border size                                                         28
 RS_GRID|   Distribution                         Average         Max         Min
 RS_GRID|   Planes                                  65.0          65          65

 RS_GRID| Information for grid number                                          3
 RS_GRID|   Bounds   1            -18      17                Points:          36
 RS_GRID|   Bounds   2            -16      15                Points:          32
 RS_GRID|   Bounds   3            -36      35                Points:          72
 RS_GRID| Real space fully replicated
 RS_GRID| Group size                                                           1

 RS_GRID| Information for grid number                                          4
 RS_GRID|   Bounds   1             -9       8                Points:          18
 RS_GRID|   Bounds   2             -8       7                Points:          16
 RS_GRID|   Bounds   3            -18      17                Points:          36
 RS_GRID| Real space fully replicated
 RS_GRID| Group size                                                           1

 Spin 1

 Number of electrons:                                                        769
 Number of occupied orbitals:                                                769
 Number of molecular orbitals:                                               769

 Spin 2

 Number of electrons:                                                        768
 Number of occupied orbitals:                                                768
 Number of molecular orbitals:                                               768

 Number of orbital functions:                                               3328
 Number of independent orbital functions:                                   3328

 Extrapolation method: initial_guess

 *** WARNING in qs_initial_guess.F:309 :: User requested to restart the    ***
 *** wavefunction from the file named: PROJECT-RESTART.wfn. This file does ***
 *** not exist. Please check the existence of the file or change properly  ***
 *** the value of the keyword WFN_RESTART_FILE_NAME. Calculation continues ***
 *** using ATOMIC GUESS.                                                   ***


 Atomic guess: The first density matrix is obtained in terms of atomic orbitals
               and electronic configurations assigned to each atomic kind

 Guess for atomic kind: Ti

 Electronic structure
    Total number of core electrons                                         10.00
    Total number of valence electrons                                      12.00
    Total number of electrons                                              22.00
    Multiplicity                                                   not specified
    S   [  2.00  2.00] 2.00  2.00
    P   [  6.00] 6.00
    D      2.00
 

 *******************************************************************************
                  Iteration          Convergence                     Energy [au]
 *******************************************************************************
                          1         2.59099                     -56.573945749309
                          2        0.737518                     -57.461623245624
                          3        0.123244E-01                 -57.676656834797
                          4        0.338536E-02                 -57.676690535970
                          5        0.252157E-03                 -57.676697146183
                          6        0.162704E-05                 -57.676697160103
                          7        0.846593E-06                 -57.676697160104

 Energy components [Hartree]           Total Energy ::          -57.676697160104
                                        Band Energy ::          -13.440549799540
                                     Kinetic Energy ::           25.008468428382
                                   Potential Energy ::          -82.685165588485
                                      Virial (-V/T) ::            3.306286661467
                                        Core Energy ::          -97.155838374470
                                          XC Energy ::           -6.919409696495
                                     Coulomb Energy ::           46.398550910862
                       Total Pseudopotential Energy ::         -122.259340742081
                       Local Pseudopotential Energy ::         -118.928992669456
                    Nonlocal Pseudopotential Energy ::           -3.330348072625
                                        Confinement ::            0.950339392289

 Orbital energies  State     L     Occupation   Energy[a.u.]          Energy[eV]

                       1     0          2.000      -2.312566          -62.928123
                       2     0          2.000      -0.123060           -3.348633
 
                       1     1          6.000      -1.385567          -37.703193
 
                       1     2          2.000      -0.127948           -3.481643
 

 Total Electron Density at R=0:                                         0.004726

 Guess for atomic kind: O

 Electronic structure
    Total number of core electrons                                          2.00
    Total number of valence electrons                                       6.00
    Total number of electrons                                               8.00
    Multiplicity                                                   not specified
    S   [  2.00] 2.00
    P      4.00
 

 *******************************************************************************
                  Iteration          Convergence                     Energy [au]
 *******************************************************************************
                          1        0.702811                     -15.577904332270
                          2        0.612408                     -15.588447180504
                          3        0.955344E-02                 -15.655871208406
                          4        0.223754E-02                 -15.655885053552
                          5        0.157183E-02                 -15.655885461027
                          6        0.124953E-02                 -15.655885607150
                          7        0.312011E-06                 -15.655885858066

 Energy components [Hartree]           Total Energy ::          -15.655885858066
                                        Band Energy ::           -2.983128125584
                                     Kinetic Energy ::           11.754765134683
                                   Potential Energy ::          -27.410650992750
                                      Virial (-V/T) ::            2.331875684345
                                        Core Energy ::          -26.153522949072
                                          XC Energy ::           -3.157392363346
                                     Coulomb Energy ::           13.655029454351
                       Total Pseudopotential Energy ::          -37.943026860963
                       Local Pseudopotential Energy ::          -39.220419683052
                    Nonlocal Pseudopotential Energy ::            1.277392822089
                                        Confinement ::            0.347387772086

 Orbital energies  State     L     Occupation   Energy[a.u.]          Energy[eV]

                       1     0          2.000      -0.861522          -23.443215
 
                       1     1          4.000      -0.315021           -8.572154
 

 Total Electron Density at R=0:                                         0.000093

 Spin 1
 Re-scaling the density matrix to get the right number of electrons for spin 1
                  # Electrons              Trace(P)               Scaling factor
                          769               768.000                        1.001

 Spin 2
 Re-scaling the density matrix to get the right number of electrons for spin 2
                  # Electrons              Trace(P)               Scaling factor
                          768               768.000                        1.000


 SCF WAVEFUNCTION OPTIMIZATION

  ----------------------------------- OT ---------------------------------------
  Minimizer      : DIIS                : direct inversion
                                         in the iterative subspace
                                         using   7 DIIS vectors
                                         safer DIIS on
  Preconditioner : FULL_ALL            : diagonalization, state selective
  Precond_solver : DEFAULT
  stepsize       :    0.15000000                  energy_gap     :    0.01000000
  eps_taylor     :   0.10000E-15                  max_taylor     :             4
  ----------------------------------- OT ---------------------------------------

  Step     Update method      Time    Convergence         Total energy    Change
  ------------------------------------------------------------------------------
     1 OT DIIS     0.15E+00   11.6     0.01273084     -5649.8634942359 -5.65E+03
     2 OT DIIS     0.15E+00    8.9     0.03892135     -5677.2501466915 -2.74E+01
     3 OT DIIS     0.15E+00    9.0     0.01305561     -5732.3714018161 -5.51E+01
     4 OT DIIS     0.15E+00    9.7     0.03421930     -5718.8256091409  1.35E+01
     5 OT DIIS     0.15E+00    9.1     0.00771408     -5755.1770589666 -3.64E+01
     6 OT DIIS     0.15E+00    8.9     0.00792534     -5762.1712680723 -6.99E+00
     7 OT DIIS     0.15E+00    9.5     0.00351687     -5768.8991276033 -6.73E+00
     8 OT DIIS     0.15E+00    9.0     0.00272051     -5771.5227701752 -2.62E+00
     9 OT DIIS     0.15E+00    9.1     0.00147790     -5773.8750440947 -2.35E+00
    10 OT DIIS     0.15E+00    9.1     0.00119567     -5775.3523295140 -1.48E+00
    11 OT DIIS     0.15E+00    8.6     0.00085270     -5776.1587631484 -8.06E-01
    12 OT DIIS     0.15E+00    8.2     0.00065599     -5776.8210814356 -6.62E-01
    13 OT DIIS     0.15E+00    8.7     0.00055775     -5777.1673043513 -3.46E-01
    14 OT DIIS     0.15E+00    9.0     0.00040538     -5777.4665013263 -2.99E-01
    15 OT DIIS     0.15E+00    9.1     0.00033874     -5777.6255700879 -1.59E-01
    16 OT DIIS     0.15E+00    9.2     0.00026396     -5777.7804787787 -1.55E-01
    17 OT DIIS     0.15E+00    9.6     0.00022294     -5777.8599865720 -7.95E-02
    18 OT DIIS     0.15E+00    9.4     0.00018441     -5777.9282383001 -6.83E-02
    19 OT DIIS     0.15E+00    9.1     0.00016499     -5777.9698966737 -4.17E-02
    20 OT DIIS     0.15E+00    9.2     0.00014982     -5778.0051033017 -3.52E-02
    21 OT DIIS     0.15E+00    9.1     0.00014371     -5778.0295637430 -2.45E-02
    22 OT DIIS     0.15E+00    8.6     0.00014410     -5778.0425153248 -1.30E-02
    23 OT DIIS     0.15E+00    8.6     0.00014407     -5778.0436964795 -1.18E-03
    24 OT DIIS     0.15E+00    9.0     0.00014372     -5778.0451002126 -1.40E-03
    25 OT DIIS     0.15E+00    9.0     0.00014363     -5778.0460501425 -9.50E-04
    26 OT DIIS     0.15E+00    9.1     0.00014525     -5778.0461496415 -9.95E-05
    27 OT DIIS     0.15E+00    9.5     0.00014136     -5778.0496522058 -3.50E-03
    28 OT DIIS     0.15E+00   10.0     0.00013334     -5778.0560626778 -6.41E-03
    29 OT DIIS     0.15E+00    9.5     0.00012981     -5778.0677563386 -1.17E-02
    30 OT SD       0.15E+00    9.2     0.00012978     -5778.0779183369 -1.02E-02
    31 OT SD       0.15E+00    9.6     0.00013404     -5778.0910043089 -1.31E-02
    32 OT SD       0.15E+00    9.0     0.00013914     -5778.1050113287 -1.40E-02
    33 OT SD       0.15E+00    9.4     0.00014405     -5778.1200658399 -1.51E-02
    34 OT SD       0.15E+00    9.3     0.00014829     -5778.1360965769 -1.60E-02
    35 OT SD       0.15E+00    9.3     0.00015176     -5778.1528872085 -1.68E-02
    36 OT SD       0.15E+00    9.3     0.00015495     -5778.1700986099 -1.72E-02
    37 OT SD       0.15E+00    9.2     0.00015955     -5778.1872729529 -1.72E-02
    38 OT DIIS     0.15E+00    8.0     0.00016943     -5778.2038098203 -1.65E-02
    39 OT SD       0.15E+00    8.7     0.00035389     -5778.1758555574  2.80E-02
    40 OT SD       0.15E+00    9.1     0.00020645     -5778.2299071174 -5.41E-02
    41 OT SD       0.15E+00    8.9     0.00017192     -5778.2525071068 -2.26E-02
    42 OT DIIS     0.15E+00    8.9     0.00015883     -5778.2685719581 -1.61E-02
    43 OT DIIS     0.15E+00    9.2     0.00012127     -5778.3035786052 -3.50E-02
    44 OT DIIS     0.15E+00    9.9     0.00021579     -5778.3196459055 -1.61E-02
    45 OT DIIS     0.15E+00    9.5     0.00014255     -5778.3053428232  1.43E-02
    46 OT DIIS     0.15E+00    9.2     0.00006921     -5778.3324863275 -2.71E-02
    47 OT DIIS     0.15E+00   10.0     0.00005461     -5778.3423438657 -9.86E-03
    48 OT DIIS     0.15E+00    9.4     0.00004519     -5778.3448845230 -2.54E-03
    49 OT DIIS     0.15E+00    9.5     0.00003214     -5778.3478397965 -2.96E-03
    50 OT DIIS     0.15E+00    9.6     0.00003078     -5778.3490403708 -1.20E-03
    51 OT DIIS     0.15E+00    9.0     0.00002290     -5778.3505074816 -1.47E-03
    52 OT DIIS     0.15E+00    9.1     0.00002107     -5778.3514907254 -9.83E-04
    53 OT DIIS     0.15E+00    9.1     0.00001931     -5778.3522697593 -7.79E-04
    54 OT DIIS     0.15E+00    8.4     0.00001657     -5778.3532885139 -1.02E-03
    55 OT DIIS     0.15E+00    8.9     0.00001544     -5778.3539463760 -6.58E-04
    56 OT DIIS     0.15E+00    8.9     0.00001443     -5778.3544679531 -5.22E-04
    57 OT DIIS     0.15E+00    9.1     0.00001314     -5778.3551544030 -6.86E-04
    58 OT DIIS     0.15E+00    9.1     0.00001229     -5778.3556573558 -5.03E-04
    59 OT DIIS     0.15E+00    9.2     0.00001146     -5778.3560340332 -3.77E-04
    60 OT DIIS     0.15E+00    9.9     0.00001064     -5778.3564752800 -4.41E-04
    61 OT DIIS     0.15E+00    9.5     0.00001008     -5778.3567500275 -2.75E-04
    62 OT DIIS     0.15E+00    9.0     0.00000947     -5778.3570247820 -2.75E-04
    63 OT DIIS     0.15E+00    9.0     0.00000906     -5778.3572903651 -2.66E-04
    64 OT DIIS     0.15E+00    9.1     0.00000867     -5778.3574709213 -1.81E-04
    65 OT DIIS     0.15E+00    8.7     0.00000826     -5778.3576905555 -2.20E-04
    66 OT DIIS     0.15E+00    8.6     0.00000796     -5778.3578744511 -1.84E-04
    67 OT DIIS     0.15E+00    9.1     0.00000769     -5778.3580537057 -1.79E-04
    68 OT DIIS     0.15E+00    9.0     0.00000738     -5778.3582196375 -1.66E-04
    69 OT DIIS     0.15E+00    9.1     0.00000713     -5778.3583738047 -1.54E-04
    70 OT DIIS     0.15E+00    9.2     0.00000691     -5778.3584919863 -1.18E-04
    71 OT DIIS     0.15E+00    9.8     0.00000671     -5778.3586319578 -1.40E-04
[...]
 flops    13 x    26 x   832        4085758017536       0.0%    100.0%      0.0%
 flops    26 x    26 x   832        4174055342080       0.0%    100.0%      0.0%
 flops   192 x   192 x   832        5590191439872       0.0%    100.0%      0.0%
 flops   832 x   192 x   192        6839599104000       0.0%    100.0%      0.0%
 flops    13 x    32 x    13       12471016210432       0.0%    100.0%      0.0%
 flops   832 x   192 x   832       13397026406400       0.0%    100.0%      0.0%
 flops    26 x    32 x    13       14287468748800       0.0%    100.0%      0.0%
 flops    13 x    32 x    26       14287468748800       0.0%    100.0%      0.0%
 flops    26 x    32 x    26       14500110270464       0.0%    100.0%      0.0%
 flops inhomo. stacks                           0       0.0%      0.0%      0.0%
 flops total                       116.168602E+12       0.0%    100.0%      0.0%
 flops max/rank                      7.376498E+12       0.0%    100.0%      0.0%
 matmuls inhomo. stacks                         0       0.0%      0.0%      0.0%
 matmuls total                         2953261177       0.0%    100.0%      0.0%
 number of processed stacks               4451154       0.0%    100.0%      0.0%
 average stack size                                     0.0     663.5       0.0
 marketing flops                   171.987050E+12
 -------------------------------------------------------------------------------
 # multiplications                          24319
 max memory usage/rank               1.006887E+09
 # max total images/rank                        1
 # max 3D layers                                1
 # MPI messages exchanged                 2334624
 MPI messages size (bytes):
  total size                         2.496120E+12
  min size                           0.000000E+00
  max size                           5.537792E+06
  average size                       1.069174E+06
 MPI breakdown and total messages size (bytes):
             size <=      128              588084                   730944
       128 < size <=     8192                6744                 20780640
      8192 < size <=    32768               60780                815658240
     32768 < size <=   131072              226488              28333006128
    131072 < size <=  4194304             1166688             916408579200
   4194304 < size <= 16777216              285840            1550656693248
  16777216 < size                               0                        0
 -------------------------------------------------------------------------------
 -                                                                             -
 -                      DBCSR MESSAGE PASSING PERFORMANCE                      -
 -                                                                             -
 -------------------------------------------------------------------------------
 ROUTINE             CALLS      AVE VOLUME [Bytes]
 MP_Bcast              145                     12.
 MP_Allreduce       123442                     30.
 MP_Alltoall        106896                 607112.
 MP_ISend           388944                 405874.
 MP_IRecv           388944                 405106.
 -------------------------------------------------------------------------------

 -------------------------------------------------------------------------------
 -                                                                             -
 -                                DBM STATISTICS                               -
 -                                                                             -
 -------------------------------------------------------------------------------
    M  x    N  x    K                                          COUNT     PERCENT
 -------------------------------------------------------------------------------

 -------------------------------------------------------------------------------
 -                                                                             -
 -                                GRID STATISTICS                              -
 -                                                                             -
 -------------------------------------------------------------------------------
 LP    KERNEL             BACKEND                              COUNT     PERCENT
 5     collocate ortho    REF                               56189952      25.63%
 5     integrate ortho    REF                               55939104      25.51%
 6     collocate ortho    REF                               26937344      12.29%
 6     integrate ortho    REF                               26817088      12.23%
 4     collocate ortho    REF                               26736640      12.19%
 4     integrate ortho    REF                               26617280      12.14%
 0     collocate general  REF                                   6144       0.00%
 0     integrate general  REF                                   6144       0.00%
 2     collocate ortho    REF                                   5120       0.00%
 3     collocate ortho    REF                                   3072       0.00%
 -------------------------------------------------------------------------------

 MEMORY| Estimated peak process memory [MiB]                                 961

 -------------------------------------------------------------------------------
 ----                             MULTIGRID INFO                            ----
 -------------------------------------------------------------------------------
 count for grid        1:         346384          cutoff [a.u.]          160.00
 count for grid        2:         226912          cutoff [a.u.]           40.00
 count for grid        3:         140672          cutoff [a.u.]           10.00
 count for grid        4:           8704          cutoff [a.u.]            2.50
 total gridlevel count  :         722672

 -------------------------------------------------------------------------------
 -                                                                             -
 -                         MESSAGE PASSING PERFORMANCE                         -
 -                                                                             -
 -------------------------------------------------------------------------------

 ROUTINE             CALLS      AVE VOLUME [Bytes]
 MP_Group                4
 MP_Bcast            43817                   9099.
 MP_Allreduce       113327                   1126.
 MP_Sync              1506
 MP_Alltoall          5196               10586339.
 MP_SendRecv         19032                 106118.
 MP_ISendRecv        13380                  32256.
 MP_Wait             60376
 MP_comm_split         531
 MP_ISend            39768                 303355.
 MP_IRecv            39768                 303364.
 MP_Recv              1035                 851968.
 MP_Write_All            8                 606720.
 -------------------------------------------------------------------------------


 -------------------------------------------------------------------------------
 -                                                                             -
 -                           R E F E R E N C E S                               -
 -                                                                             -
 -------------------------------------------------------------------------------
 
 CP2K version 2023.1, the CP2K developers group (2023).
 CP2K is freely available from https://www.cp2k.org/ .

 Kuehne,Thomas D.; Iannuzzi,Marcella; Del Ben,Mauro;
 Rybkin,Vladimir V.; Seewald,Patrick; Stein,Frederick; Laino,Teodoro;
 Khaliullin,Rustam Z.; Schuett,Ole; Schiffmann,Florian; Golze,Dorothea;
 Wilhelm,Jan; Chulkov,Sergey; Bani-Hashemian,Mohammad Hossein;
 Weber,Valery; Borstnik,Urban; Taillefumier,Mathieu;
 Jakobovits,Alice Shoshana; Lazzaro,Alfio; Pabst,Hans; Mueller,Tiziano;
 Schade,Robert; Guidon,Manuel; Andermatt,Samuel; Holmberg,Nico;
 Schenter,Gregory K.; Hehn,Anna; Bussy,Augustin; Belleflamme,Fabian;
 Tabacchi,Gloria; Gloess,Andreas; Lass,Michael; Bethune,Iain;
 Mundy,Christopher J.; Plessl,Christian; Watkins,Matt;
 VandeVondele,Joost; Krack,Matthias; Hutter,Juerg. 
 The Journal of Chemical Physics, 152 (19), (2020). 
 CP2K: An electronic structure and molecular dynamics software package -
 Quickstep: Efficient and accurate electronic structure calculations.
 https://doi.org/10.1063/5.0007045

 Goerigk, Lars; Hansen, Andreas; Bauer, Christoph; Ehrlich, Stephan;
 Najibi, Asim; Grimme, Stefan. , 19 (48), (2017). 
 A look at the density functional theory zoo with the advanced GMTKN55 database
 for general main group thermochemistry, kinetics and noncovalent interactions.
 https://doi.org/10.1039/C7CP04913G

 Schuett, Ole; Messmer, Peter; Hutter, Juerg; VandeVondele, Joost. 
 Electronic Structure Calculations on Graphics Processing Units, John
 Wiley & Sons, Ltd, 173-190 (2016). 
 GPU-Accelerated Sparse Matrix-Matrix Multiplication for
 Linear Scaling Density Functional Theory.
 https://doi.org/10.1002/9781118670712.ch8

 Heinecke, A; Henry, G; Hutchinson, M; Pabst, H. 
 Proceedings of Intl. Supercomputing Conference, 981-991 (2016). 
 LIBXSMM: Accelerating Small Matrix Multiplications
 by Runtime Code Generation.
 https://doi.org/10.1109/SC.2016.83

 Borstnik, U; VandeVondele, J; Weber, V; Hutter, J. 
 PARALLEL COMPUTING, 40 (5-6), 47-58 (2014). 
 Sparse matrix multiplication: The distributed block-compressed sparse
 row library.
 https://doi.org/10.1016/j.parco.2014.03.012

 Hutter, J; Iannuzzi, M; Schiffmann, F; VandeVondele, J. 
 WIREs Comput Mol Sci., 4 (1), 15-25 (2014). 
 CP2K: atomistic simulations of condensed matter systems.
 https://doi.org/10.1002/wcms.1159

 Marek, A; Blum, V; Johanni, R; Havu, V; Lang, B; Auckenthaler, T;
 Heinecke, A; Bungartz, H; Lederer, H. 
 Journal of Physics: Condensed Matter, 26 (21), (2014). 
 The ELPA library: scalable parallel eigenvalue solutions for
 electronic structure
 theory and computational science.
 https://doi.org/10.1088/0953-8984/26/21/213201

 Grimme, S; Ehrlich, S; Goerigk, L. 
 JOURNAL OF COMPUTATIONAL CHEMISTRY, 32, 1456 (2011). 
 Effect of the damping function in dispersion corrected density functional theory.
 https://doi.org/10.1002/jcc.21759

 Grimme, S; Antony, J; Ehrlich, S; Krieg, H. 
 JOURNAL OF CHEMICAL PHYSICS, 132 (15), 154104 (2010). 
 A consistent and accurate ab initio parametrization of density
 functional dispersion correction (DFT-D) for the 94 elements H-Pu.
 https://doi.org/10.1063/1.3382344

 VandeVondele, J; Hutter, J. 
 JOURNAL OF CHEMICAL PHYSICS, 127 (11), 114105 (2007). 
 Gaussian basis sets for accurate calculations on molecular systems in
 gas and condensed phases.
 https://doi.org/10.1063/1.2770708

 Krack, M. 
 THEORETICAL CHEMISTRY ACCOUNTS, 114 (1-3), 145-152 (2005). 
 Pseudopotentials for H to Kr optimized for gradient-corrected
 exchange-correlation functionals.
 https://doi.org/10.1007/s00214-005-0655-y

 VandeVondele, J; Krack, M; Mohamed, F; Parrinello, M; Chassaing, T;
 Hutter, J. COMPUTER PHYSICS COMMUNICATIONS, 167 (2), 103-128 (2005). 
 QUICKSTEP: Fast and accurate density functional calculations using a
 mixed Gaussian and plane waves approach.
 https://doi.org/10.1016/j.cpc.2004.12.014

 Frigo, M; Johnson, SG. 
 PROCEEDINGS OF THE IEEE, 93 (2), 216-231 (2005). 
 The design and implementation of FFTW3.
 https://doi.org/10.1109/JPROC.2004.840301

 VandeVondele, J; Hutter, J. 
 JOURNAL OF CHEMICAL PHYSICS, 118 (10), 4365-4369 (2003). 
 An efficient orbital transformation method for electronic structure
 calculations.
 https://doi.org/10.1063/1.1543154

 Hartwigsen, C; Goedecker, S; Hutter, J. 
 PHYSICAL REVIEW B, 58 (7), 3641-3662 (1998). 
 Relativistic separable dual-space Gaussian pseudopotentials from H to Rn.
 https://doi.org/10.1103/PhysRevB.58.3641

 Dudarev, SL; Botton, GA; Savrasov, SY; Humphreys, CJ; Sutton, AP. 
 PHYSICAL REVIEW B, 57 (3), 1505-1509 (1998). 
 Electron-energy-loss spectra and the structural stability of
 nickel oxide: An LSDA+U study.
 https://doi.org/10.1103/PhysRevB.57.1505

 Lippert, G; Hutter, J; Parrinello, M. 
 MOLECULAR PHYSICS, 92 (3), 477-487 (1997). 
 A hybrid Gaussian and plane wave density functional scheme.
 https://doi.org/10.1080/002689797170220

 Dudarev, SL; Manh, DN; Sutton, AP. 
 PHILOSOPHICAL MAGAZINE B, 75 (5), 613-628 (1997). 
 Effect of Mott-Hubbard correlations on the electronic
 structure and structural stability of uranium dioxide.
 https://doi.org/10.1080/13642819708202343

 Perdew, JP; Burke, K; Ernzerhof, M. 
 PHYSICAL REVIEW LETTERS, 77 (18), 3865-3868 (1996). 
 Generalized gradient approximation made simple.
 https://doi.org/10.1103/PhysRevLett.77.3865

 Goedecker, S; Teter, M; Hutter, J. 
 PHYSICAL REVIEW B, 54 (3), 1703-1710 (1996). 
 Separable dual-space Gaussian pseudopotentials.
 https://doi.org/10.1103/PhysRevB.54.1703


 -------------------------------------------------------------------------------
 -                                                                             -
 -                                T I M I N G                                  -
 -                                                                             -
 -------------------------------------------------------------------------------
 SUBROUTINE                       CALLS  ASD         SELF TIME        TOTAL TIME
                                MAXIMUM       AVERAGE  MAXIMUM  AVERAGE  MAXIMUM
 CP2K                                 1  1.0    0.019    0.024 2313.115 2313.165
 qs_energies                          1  2.0    0.000    0.000 2312.615 2312.664
 scf_env_do_scf                       1  3.0    0.001    0.001 2056.018 2056.061
 scf_env_do_scf_inner_loop          223  4.0    0.019    0.184 2033.731 2035.427
 qs_ks_update_qs_env                225  5.0    0.003    0.003 1156.655 1158.284
 rebuild_ks_matrix                  223  6.0    0.005    0.007 1154.556 1156.187
 qs_ks_build_kohn_sham_matrix       223  7.0    0.067    0.086 1154.551 1156.184
 dbcsr_multiply_generic           24319  9.5    1.436    1.813  620.785  641.249
 qs_rho_update_rho_low              224  5.0    0.004    0.007  589.493  590.756
 calculate_rho_elec                 448  6.0    0.899    1.080  589.489  590.749
 sum_up_and_integrate               223  8.0    1.920    2.554  588.746  589.533
 integrate_v_rspace                 446  9.0    0.017    0.022  586.821  587.090
 grid_integrate_task_list           446 10.0  381.601  521.708  381.601  521.708
 grid_collocate_task_list           448  7.0  363.364  493.138  363.364  493.138
 multiply_cannon                  24319 10.5    2.217    2.645  428.428  469.072
 multiply_cannon_loop             24319 11.5    1.339    1.863  397.897  445.693
 plus_u                             223  8.0    0.015    0.021  426.325  427.304
 lowdin                             223  9.0    0.085    0.107  426.310  427.292
 multiply_cannon_multrec          97276 12.5  243.057  312.125  243.483  312.701
 qs_scf_new_mos                     223  5.0    0.002    0.003  291.183  292.169
 qs_scf_loop_do_ot                  223  6.0    0.009    0.013  291.181  292.168
 ot_scf_mini                        223  7.0    0.018    0.024  268.390  269.995
 mp_alltoall_d11v                 27744 12.5  190.507  252.020  190.507  252.020
 scf_post_calculation_gpw             1  3.0    0.001    0.002  250.330  250.340
 density_rs2pw                      448  7.0    0.031    0.039  196.240  242.852
 mp_waitall_1                   1187920 13.7  180.494  226.017  180.494  226.017
 rs_pw_transfer                    3612  9.5    0.045    0.063  173.109  222.580
 cp_dbcsr_sm_fm_multiply            917  9.9    0.047    0.066  210.112  215.085
 ot_mini                           1147  7.1    0.013    0.016  207.437  209.684
 mp_waitany                       39768 11.5  146.789  203.468  146.789  203.468
 rs_gather_matrices                 446 10.0    3.184    4.628  148.264  201.437
 rs_pw_transfer_RS2PW_160           458  9.0    6.275    9.100  142.530  191.711
 multiply_cannon_metrocomm1       97276 12.5    0.485    0.677  116.621  172.313
 ot_eigensolver                       4  6.0    0.027    0.034  144.826  144.833
 cp_dbcsr_sm_fm_multiply_core       917 10.9    0.015    0.022  132.705  136.605
 make_m2s                         48638 10.5    0.965    1.285  125.525  135.080
 qs_ot_get_derivative               910  8.4    0.019    0.027  117.328  117.879
 cp_dbcsr_plus_fm_fm_t_native       448 10.0    0.022    0.029  101.512  110.228
 write_available_results              1  4.0    0.000    0.001  107.594  107.599
 write_mo_dependent_results           1  5.0    0.004    0.005  107.285  107.290
 calculate_projected_dos              2  6.0    0.187    1.626  105.257  106.692
 make_images                      48638 11.5    2.304    2.797   99.792  105.246
 parallel_gemm_fm                   519  9.6    0.004    0.006   97.887   99.262
 parallel_gemm_fm_cosma             519 10.6   97.883   99.259   97.883   99.259
 pw_to_cube                           8  5.0    5.207   79.850   95.804   96.126
 pw_transfer                       4734  9.2    0.306    0.369   90.415   93.462
 dbcsr_complete_redistribute       5653 11.4   33.424   43.725   86.556   93.459
 fft_wrap_pw1pw2                   4288 10.2    0.033    0.040   89.058   91.894
 ot_diis_step                       223  9.0    0.025    0.032   87.449   87.456
 qs_vxc_create                      223  8.0    0.015    0.020   85.317   86.896
 xc_vxc_pw_create                   223  9.0   10.082   14.088   85.301   86.881
 fft_wrap_pw1pw2_160               1582 10.8    6.870    8.340   77.710   86.566
 copy_fm_to_dbcsr                  3457 10.5    0.057    0.074   77.287   83.898
 apply_preconditioner_dbcsr         450 10.0    0.011    0.022   76.408   79.819
 apply_all                          450 11.0    0.157    0.203   76.396   79.810
 mp_bcast_l                           8  6.0   74.297   79.252   74.297   79.252
 mp_sum_l                        114510 10.5   40.117   77.868   40.117   77.868
 fft3d_ps                          4288 12.2   27.826   33.742   64.760   70.608
 qs_ot_get_p                       1398  7.2    0.025    0.036   59.422   67.678
 qs_ot_get_derivative_diag          663  9.6    0.034    0.045   65.737   66.893
 hybrid_alltoall_any              50834 13.4    7.192   40.531   48.283   59.812
 potential_pw2rs                    446 10.0    0.046    0.056   56.938   58.663
 multiply_cannon_metrocomm3       97276 12.5    0.327    0.441   27.654   57.228
 make_images_data                 48638 12.5    0.513    0.646   46.654   56.607
 copy_dbcsr_to_fm                  2196 10.2    0.065    0.086   49.612   52.981
 qs_scf_post_occ_cubes                2  4.0    0.618    0.938   50.781   50.812
 xc_rho_set_and_dset_create         223 10.0    4.969    6.811   47.801   50.442
 mp_alltoall_i22                   8950 12.3   25.582   49.617   25.582   49.617
 qs_scf_post_unocc_cubes              2  4.0    0.904    1.549   48.138   48.151
 xc_pw_derive                      2676 11.0    0.017    0.025   36.444   47.183
 pw_nn_compose_r                   2676 12.0   19.342   23.292   36.426   47.172
 mp_sum_d                         34601 11.1   24.514   46.918   24.514   46.918
 -------------------------------------------------------------------------------

 The number of warnings for this run is : 1
 
 -------------------------------------------------------------------------------
  **** **** ******  **  PROGRAM ENDED AT                 2023-07-26 14:57:14.684
 ***** ** ***  *** **   PROGRAM RAN ON                                    node06
 **    ****   ******    PROGRAM RAN BY                                       ywj
 ***** **    ** ** **   PROGRAM PROCESS ID                                   744
  **** **  *******  **  PROGRAM STOPPED IN /home/ywj/bozai/work/1-TiO2/2-slab-11
                                           0/1-pure/4-deal/2-cube/0-0.0
