 *******************************************************************************
 *                            RESTART INFORMATION                              *
 *******************************************************************************
 *                                                                             *
 *    RESTART FILE NAME: PROJECT-1.restart                                     *
 *                                                                             *
 * RESTARTED QUANTITIES:                                                       *
 *                       CELL                                                  *
 *                       COORDINATES                                           *
 *                       RANDOM NUMBER GENERATOR                               *
 *                       VELOCITIES                                            *
 *                       GEO_OPT COUNTERS                                      *
 *                       CELL_OPT COUNTERS                                     *
 *                       PARTICLE THERMOSTAT                                   *
 *                       REAL TIME PROPAGATION                                 *
 *                       PINT BEAD POSITIONS                                   *
 *                       PINT BEAD VELOCITIES                                  *
 *                       PINT NOSE THERMOSTAT                                  *
 *                       PINT GLE THERMOSTAT                                   *
 *                       HELIUM BEAD POSITIONS                                 *
 *                       HELIUM PERMUTATION STATE                              *
 *                       HELIUM FORCES ON SOLUTE                               *
 *                       HELIUM RNG STATE                                      *
 *******************************************************************************

 DBCSR| CPU Multiplication driver                                           XSMM
 DBCSR| Multrec recursion limit                                              512
 DBCSR| Multiplication stack size                                           1000
 DBCSR| Maximum elements for images                                    UNLIMITED
 DBCSR| Multiplicative factor virtual images                                   1
 DBCSR| Use multiplication densification                                       T
 DBCSR| Multiplication size stacks                                             3
 DBCSR| Use memory pool for CPU allocation                                     F
 DBCSR| Number of 3D layers                                               SINGLE
 DBCSR| Use MPI memory allocation                                              F
 DBCSR| Use RMA algorithm                                                      F
 DBCSR| Use Communication thread                                               T
 DBCSR| Communication thread load                                             87
 DBCSR| MPI: My node id                                                        0
 DBCSR| MPI: Number of nodes                                                  40
 DBCSR| OMP: Current number of threads                                         1
 DBCSR| OMP: Max number of threads                                             1
 DBCSR| Split modifier for TAS multiplication algorithm                  1.0E+00


  **** **** ******  **  PROGRAM STARTED AT               2023-05-22 17:04:12.505
 ***** ** ***  *** **   PROGRAM STARTED ON                                node02
 **    ****   ******    PROGRAM STARTED BY                                  wyin
 ***** **    ** ** **   PROGRAM PROCESS ID                                  3759
  **** **  *******  **  PROGRAM STARTED IN /home/wyin/bozai/job/1-TiO2/1-Bulk/3-
                                           Marcus/1-localization/5-Ti71

 CP2K| version string:                                       CP2K version 2022.1
 CP2K| source code revision number:                                  git:2caeb6f
 CP2K| cp2kflags: omp libint fftw3 libxc elpa parallel mpi3 scalapack xsmm plume
 CP2K|            d2 spglib mkl libvori libbqb
 CP2K| is freely available from                            https://www.cp2k.org/
 CP2K| Program compiled at                          Mon Mar 13 16:18:57 CET 2023
 CP2K| Program compiled on                                               login02
 CP2K| Program compiled for                                                local
 CP2K| Data directory path                   /home/wyin/package/cp2k-2022.1/data
 CP2K| Input file name                                                 input.inp
 
 GLOBAL| Force Environment number                                              1
 GLOBAL| Basis set file name            /home/wyin/bozai/Bootstrap/BASIS_SET/BAS
 GLOBAL| Potential file name            /home/wyin/bozai/Bootstrap/BASIS_SET/GTH
 GLOBAL| MM Potential file name                                     MM_POTENTIAL
 GLOBAL| Coordinate file name                                           Bulk.xyz
 GLOBAL| Method name                                                        CP2K
 GLOBAL| Project name                                                    PROJECT
 GLOBAL| Run type                                                        GEO_OPT
 GLOBAL| FFT library                                                       FFTW3
 GLOBAL| Diagonalization library                                            ELPA
 GLOBAL| Minimum number of eigenvectors for ELPA usage                        16
 GLOBAL| Orthonormality check for eigenvectors                          DISABLED
 GLOBAL| Matrix multiplication library                                 ScaLAPACK
 GLOBAL| All-to-all communication in single precision                          F
 GLOBAL| FFTs using library dependent lengths                                  F
 GLOBAL| Grid backend                                                       AUTO
 GLOBAL| Global print level                                               MEDIUM
 GLOBAL| MPI I/O enabled                                                       T
 GLOBAL| Total number of message passing processes                            40
 GLOBAL| Number of threads for this process                                    1
 GLOBAL| This output is from process                                           0
 GLOBAL| Stack size for threads created by OpenMP (OMP_STACKSIZE)        default
 GLOBAL| CPU model name                Intel(R) Xeon(R) CPU E5-2640 v4 @ 2.40GHz
 GLOBAL| CPUID                                                              1002
 GLOBAL| Compiled for CPUID                                                 1001

 *** HINT in environment.F:869 :: The compiler target flags (x86_avx) used ***
 *** to build this binary cannot exploit all extensions of this CPU model  ***
 *** (x86_avx2). Consider compiler target flags as part of FCFLAGS and     ***
 *** CFLAGS (ARCH file).                                                   ***


 MEMORY| system memory details [Kb]
 MEMORY|                        rank 0           min           max       average
 MEMORY| MemTotal            131745444     131745120     131745444     131745282
 MEMORY| MemFree             126872040     126872040     126888672     126880356
 MEMORY| Buffers                  6052          5280          6052          5666
 MEMORY| Cached                 277284        274420        277284        275852
 MEMORY| Slab                   163152        161304        163152        162228
 MEMORY| SReclaimable            38792         37580         38792         38186
 MEMORY| MemLikelyFree       127194168     127194168     127205952     127200060


 *** Fundamental physical constants (SI units) ***

 *** Literature: B. J. Mohr and B. N. Taylor,
 ***             CODATA recommended values of the fundamental physical
 ***             constants: 2006, Web Version 5.1
 ***             http://physics.nist.gov/constants

 Speed of light in vacuum [m/s]                             2.99792458000000E+08
 Magnetic constant or permeability of vacuum [N/A**2]       1.25663706143592E-06
 Electric constant or permittivity of vacuum [F/m]          8.85418781762039E-12
 Planck constant (h) [J*s]                                  6.62606896000000E-34
 Planck constant (h-bar) [J*s]                              1.05457162825177E-34
 Elementary charge [C]                                      1.60217648700000E-19
 Electron mass [kg]                                         9.10938215000000E-31
 Electron g factor [ ]                                     -2.00231930436220E+00
 Proton mass [kg]                                           1.67262163700000E-27
 Fine-structure constant                                    7.29735253760000E-03
 Rydberg constant [1/m]                                     1.09737315685270E+07
 Avogadro constant [1/mol]                                  6.02214179000000E+23
 Boltzmann constant [J/K]                                   1.38065040000000E-23
 Atomic mass unit [kg]                                      1.66053878200000E-27
 Bohr radius [m]                                            5.29177208590000E-11

 *** Conversion factors ***

 [u] -> [a.u.]                                              1.82288848426455E+03
 [Angstrom] -> [Bohr] = [a.u.]                              1.88972613288564E+00
 [a.u.] = [Bohr] -> [Angstrom]                              5.29177208590000E-01
 [a.u.] -> [s]                                              2.41888432650478E-17
 [a.u.] -> [fs]                                             2.41888432650478E-02
 [a.u.] -> [J]                                              4.35974393937059E-18
 [a.u.] -> [N]                                              8.23872205491840E-08
 [a.u.] -> [K]                                              3.15774647902944E+05
 [a.u.] -> [kJ/mol]                                         2.62549961709828E+03
 [a.u.] -> [kcal/mol]                                       6.27509468713739E+02
 [a.u.] -> [Pa]                                             2.94210107994716E+13
 [a.u.] -> [bar]                                            2.94210107994716E+08
 [a.u.] -> [atm]                                            2.90362800883016E+08
 [a.u.] -> [eV]                                             2.72113838565563E+01
 [a.u.] -> [Hz]                                             6.57968392072181E+15
 [a.u.] -> [1/cm] (wave numbers)                            2.19474631370540E+05
 [a.u./Bohr**2] -> [1/cm]                                   5.14048714338585E+03
 

 CELL_TOP| Volume [angstrom^3]:                                      2911.992402
 CELL_TOP| Vector a [angstrom    13.911     0.000     0.000   |a| =    13.910500
 CELL_TOP| Vector b [angstrom     0.000    13.911     0.000   |b| =    13.910500
 CELL_TOP| Vector c [angstrom     0.000     0.000    15.049   |c| =    15.048900
 CELL_TOP| Angle (b,c), alpha [degree]:                                90.000000
 CELL_TOP| Angle (a,c), beta  [degree]:                                90.000000
 CELL_TOP| Angle (a,b), gamma [degree]:                                90.000000
 CELL_TOP| Numerically orthorhombic:                                         YES

 *** WARNING in atoms_input.F:123 :: Overwriting coordinates. Active    ***
 *** coordinates read from &COORD section. Active coordinates READ from ***
 *** &COORD section                                                     ***

 
 GENERATE|  Preliminary Number of Bonds generated:                             0
 GENERATE|  Achieved consistency in connectivity generation.

 CELL| Volume [angstrom^3]:                                          2911.992402
 CELL| Vector a [angstrom]:      13.911     0.000     0.000   |a| =    13.910500
 CELL| Vector b [angstrom]:       0.000    13.911     0.000   |b| =    13.910500
 CELL| Vector c [angstrom]:       0.000     0.000    15.049   |c| =    15.048900
 CELL| Angle (b,c), alpha [degree]:                                    90.000000
 CELL| Angle (a,c), beta  [degree]:                                    90.000000
 CELL| Angle (a,b), gamma [degree]:                                    90.000000
 CELL| Numerically orthorhombic:                                             YES

 CELL_REF| Volume [angstrom^3]:                                      2911.992402
 CELL_REF| Vector a [angstrom    13.911     0.000     0.000   |a| =    13.910500
 CELL_REF| Vector b [angstrom     0.000    13.911     0.000   |b| =    13.910500
 CELL_REF| Vector c [angstrom     0.000     0.000    15.049   |c| =    15.048900
 CELL_REF| Angle (b,c), alpha [degree]:                                90.000000
 CELL_REF| Angle (a,c), beta  [degree]:                                90.000000
 CELL_REF| Angle (a,b), gamma [degree]:                                90.000000
 CELL_REF| Numerically orthorhombic:                                         YES

 *******************************************************************************
 *******************************************************************************
 **                                                                           **
 **     #####                         ##              ##                      **
 **    ##   ##            ##          ##              ##                      **
 **   ##     ##                       ##            ######                    **
 **   ##     ##  ##   ##  ##   #####  ##  ##   ####   ##    #####    #####    **
 **   ##     ##  ##   ##  ##  ##      ## ##   ##      ##   ##   ##  ##   ##   **
 **   ##  ## ##  ##   ##  ##  ##      ####     ###    ##   ######   ######    **
 **    ##  ###   ##   ##  ##  ##      ## ##      ##   ##   ##       ##        **
 **     #######   #####   ##   #####  ##  ##  ####    ##    #####   ##        **
 **           ##                                                    ##        **
 **                                                                           **
 **                                                ... make the atoms dance   **
 **                                                                           **
 **            Copyright (C) by CP2K developers group (2000-2022)             **
 **                      J. Chem. Phys. 152, 194103 (2020)                    **
 **                                                                           **
 *******************************************************************************

 DFT| Spin unrestricted (spin-polarized) Kohn-Sham calculation               UKS
 DFT| Multiplicity                                                             2
 DFT| Number of spin states                                                    2
 DFT| Charge                                                                  -1
 DFT| Self-interaction correction (SIC)                                       NO
 DFT| Cutoffs: density                                              1.000000E-10
 DFT|          gradient                                             1.000000E-10
 DFT|          tau                                                  1.000000E-10
 DFT|          cutoff_smoothing_range                               0.000000E+00
 DFT| XC density smoothing                                                  NN10
 DFT| XC derivatives                                              SPLINE2_SMOOTH

 DFT+U| Method                                                            LOWDIN
 DFT+U| Check atomic kind information for details

 FUNCTIONAL| PBE:
 FUNCTIONAL| J.P.Perdew, K.Burke, M.Ernzerhof, Phys. Rev. Letter, vol. 77, n 18,
 FUNCTIONAL|  pp. 3865-3868, (1996){spin polarized}                             

 vdW POTENTIAL|                                                   Pair Potential
 vdW POTENTIAL|          DFT-D3 (Version 3.1)
 vdW POTENTIAL|          Potential Form: S. Grimme et al, JCP 132: 154104 (2010)
 vdW POTENTIAL|          Zero Damping
 vdW POTENTIAL|          Cutoff Radius [Bohr]:                             20.00
 vdW POTENTIAL|          s6 Scaling Factor:                               1.0000
 vdW POTENTIAL|          sr6 Scaling Factor:                              1.2170
 vdW POTENTIAL|          s8 Scaling Factor:                               0.7220
 vdW POTENTIAL|          Cutoff for CN calculation:                   0.1000E-05

 QS| Method:                                                                 GPW
 QS| Density plane wave grid type                        NON-SPHERICAL FULLSPACE
 QS| Number of grid levels:                                                    5
 QS| Density cutoff [a.u.]:                                                400.0
 QS| Using commensurate multigrids
 QS| Multi grid cutoff [a.u.]: 1) grid level                               400.0
 QS|                           2) grid level                               100.0
 QS|                           3) grid level                                25.0
 QS|                           4) grid level                                 6.2
 QS|                           5) grid level                                 1.6
 QS| Grid level progression factor:                                          4.0
 QS| Relative density cutoff [a.u.]:                                        20.0
 QS| Interaction thresholds: eps_pgf_orb:                                1.0E-06
 QS|                         eps_filter_matrix:                          0.0E+00
 QS|                         eps_core_charge:                            1.0E-14
 QS|                         eps_rho_gspace:                             1.0E-12
 QS|                         eps_rho_rspace:                             1.0E-12
 QS|                         eps_gvg_rspace:                             1.0E-06
 QS|                         eps_ppl:                                    1.0E-02
 QS|                         eps_ppnl:                                   1.0E-08


 ATOMIC KIND INFORMATION

  1. Atomic kind: Ti                                    Number of atoms:      90

     Orbital Basis Set                                        DZVP-MOLOPT-SR-GTH

       Number of orbital shell sets:                                           1
       Number of orbital shells:                                               8
       Number of primitive Cartesian functions:                                6
       Number of Cartesian basis functions:                                   31
       Number of spherical basis functions:                                   26
       Norm type:                                                              2

       Normalised Cartesian orbitals:

                        Set   Shell   Orbital            Exponent    Coefficient

                          1       1    2s                7.884570       0.015554
                                                         3.894698       0.963603
                                                         1.513589      -0.631435
                                                         0.596768      -0.343022
                                                         0.222222      -0.006534
                                                         0.077078       0.007652

                          1       2    3s                7.884570      -0.009340
                                                         3.894698       0.212624
                                                         1.513589      -0.258368
                                                         0.596768      -0.226206
                                                         0.222222       0.039438
                                                         0.077078       0.107179

                          1       3    4s                7.884570       0.276563
                                                         3.894698       0.105452
                                                         1.513589       0.085149
                                                         0.596768       0.882541
                                                         0.222222      -0.696223
                                                         0.077078       0.156638

                          1       4    3px               7.884570      -2.034794
                                                         3.894698       0.782008
                                                         1.513589       1.253903
                                                         0.596768       0.347823
                                                         0.222222       0.016778
                                                         0.077078      -0.000433
                          1       4    3py               7.884570      -2.034794
                                                         3.894698       0.782008
                                                         1.513589       1.253903
                                                         0.596768       0.347823
                                                         0.222222       0.016778
                                                         0.077078      -0.000433
                          1       4    3pz               7.884570      -2.034794
                                                         3.894698       0.782008
                                                         1.513589       1.253903
                                                         0.596768       0.347823
                                                         0.222222       0.016778
                                                         0.077078      -0.000433

                          1       5    4px               7.884570       0.376572
                                                         3.894698      -0.182875
                                                         1.513589      -0.474776
                                                         0.596768      -0.081757
                                                         0.222222       0.064432
                                                         0.077078       0.047279
                          1       5    4py               7.884570       0.376572
                                                         3.894698      -0.182875
                                                         1.513589      -0.474776
                                                         0.596768      -0.081757
                                                         0.222222       0.064432
                                                         0.077078       0.047279
                          1       5    4pz               7.884570       0.376572
                                                         3.894698      -0.182875
                                                         1.513589      -0.474776
                                                         0.596768      -0.081757
                                                         0.222222       0.064432
                                                         0.077078       0.047279

                          1       6    4dx2              7.884570       3.047350
                                                         3.894698       3.289529
                                                         1.513589       1.060616
                                                         0.596768       0.249930
                                                         0.222222       0.038806
                                                         0.077078       0.002319
                          1       6    4dxy              7.884570       5.278165
                                                         3.894698       5.697631
                                                         1.513589       1.837041
                                                         0.596768       0.432892
                                                         0.222222       0.067214
                                                         0.077078       0.004017
                          1       6    4dxz              7.884570       5.278165
                                                         3.894698       5.697631
                                                         1.513589       1.837041
                                                         0.596768       0.432892
                                                         0.222222       0.067214
                                                         0.077078       0.004017
                          1       6    4dy2              7.884570       3.047350
                                                         3.894698       3.289529
                                                         1.513589       1.060616
                                                         0.596768       0.249930
                                                         0.222222       0.038806
                                                         0.077078       0.002319
                          1       6    4dyz              7.884570       5.278165
                                                         3.894698       5.697631
                                                         1.513589       1.837041
                                                         0.596768       0.432892
                                                         0.222222       0.067214
                                                         0.077078       0.004017
                          1       6    4dz2              7.884570       3.047350
                                                         3.894698       3.289529
                                                         1.513589       1.060616
                                                         0.596768       0.249930
                                                         0.222222       0.038806
                                                         0.077078       0.002319

                          1       7    5dx2              7.884570      -2.119015
                                                         3.894698      -1.237751
                                                         1.513589      -0.746777
                                                         0.596768      -0.071514
                                                         0.222222       0.004086
                                                         0.077078       0.017595
                          1       7    5dxy              7.884570      -3.670241
                                                         3.894698      -2.143848
                                                         1.513589      -1.293455
                                                         0.596768      -0.123865
                                                         0.222222       0.007077
                                                         0.077078       0.030475
                          1       7    5dxz              7.884570      -3.670241
                                                         3.894698      -2.143848
                                                         1.513589      -1.293455
                                                         0.596768      -0.123865
                                                         0.222222       0.007077
                                                         0.077078       0.030475
                          1       7    5dy2              7.884570      -2.119015
                                                         3.894698      -1.237751
                                                         1.513589      -0.746777
                                                         0.596768      -0.071514
                                                         0.222222       0.004086
                                                         0.077078       0.017595
                          1       7    5dyz              7.884570      -3.670241
                                                         3.894698      -2.143848
                                                         1.513589      -1.293455
                                                         0.596768      -0.123865
                                                         0.222222       0.007077
                                                         0.077078       0.030475
                          1       7    5dz2              7.884570      -2.119015
                                                         3.894698      -1.237751
                                                         1.513589      -0.746777
                                                         0.596768      -0.071514
                                                         0.222222       0.004086
                                                         0.077078       0.017595

                          1       8    5fx3              7.884570      -0.342058
                                                         3.894698       0.375798
                                                         1.513589      -0.706469
                                                         0.596768      -0.229994
                                                         0.222222      -0.012723
                                                         0.077078       0.003932
                          1       8    5fx2y             7.884570      -0.764866
                                                         3.894698       0.840310
                                                         1.513589      -1.579712
                                                         0.596768      -0.514282
                                                         0.222222      -0.028450
                                                         0.077078       0.008792
                          1       8    5fx2z             7.884570      -0.764866
                                                         3.894698       0.840310
                                                         1.513589      -1.579712
                                                         0.596768      -0.514282
                                                         0.222222      -0.028450
                                                         0.077078       0.008792
                          1       8    5fxy2             7.884570      -0.764866
                                                         3.894698       0.840310
                                                         1.513589      -1.579712
                                                         0.596768      -0.514282
                                                         0.222222      -0.028450
                                                         0.077078       0.008792
                          1       8    5fxyz             7.884570      -1.324787
                                                         3.894698       1.455460
                                                         1.513589      -2.736142
                                                         0.596768      -0.890763
                                                         0.222222      -0.049276
                                                         0.077078       0.015229
                          1       8    5fxz2             7.884570      -0.764866
                                                         3.894698       0.840310
                                                         1.513589      -1.579712
                                                         0.596768      -0.514282
                                                         0.222222      -0.028450
                                                         0.077078       0.008792
                          1       8    5fy3              7.884570      -0.342058
                                                         3.894698       0.375798
                                                         1.513589      -0.706469
                                                         0.596768      -0.229994
                                                         0.222222      -0.012723
                                                         0.077078       0.003932
                          1       8    5fy2z             7.884570      -0.764866
                                                         3.894698       0.840310
                                                         1.513589      -1.579712
                                                         0.596768      -0.514282
                                                         0.222222      -0.028450
                                                         0.077078       0.008792
                          1       8    5fyz2             7.884570      -0.764866
                                                         3.894698       0.840310
                                                         1.513589      -1.579712
                                                         0.596768      -0.514282
                                                         0.222222      -0.028450
                                                         0.077078       0.008792
                          1       8    5fz3              7.884570      -0.342058
                                                         3.894698       0.375798
                                                         1.513589      -0.706469
                                                         0.596768      -0.229994
                                                         0.222222      -0.012723
                                                         0.077078       0.003932

       Atomic covalent radius [Angstrom]:                                  1.320

       Atomic van der Waals radius [Angstrom]:                             1.760

     GTH Potential information for                                   GTH-PBE-q12

       Description:                       Goedecker-Teter-Hutter pseudopotential
                                           Goedecker et al., PRB 54, 1703 (1996)
                                          Hartwigsen et al., PRB 58, 3641 (1998)
                                                      Krack, TCA 114, 145 (2005)

       Gaussian exponent of the core charge distribution:               3.462604
       Electronic configuration (s p d ...):                           4   6   2

       Parameters of the local part of the GTH pseudopotential:

                          rloc        C1          C2          C3          C4
                        0.380000    8.711442   -0.700287

       Parameters of the non-local part of the GTH pseudopotential:

                   l      r(l)      h(i,j,l)

                   0    0.337771    2.575264    3.692971
                                    3.692971   -4.767605
                   1    0.242531   -4.630541    8.870875
                                    8.870875  -10.496161
                   2    0.243317   -9.406653

     A DFT+U correction is applied to atoms of this atomic kind:
       Angular quantum momentum number L:                                      2
       U(eff) = (U - J) value in [eV]:                                     4.200

  2. Atomic kind: O                                     Number of atoms:     180

     Orbital Basis Set                                        DZVP-MOLOPT-SR-GTH

       Number of orbital shell sets:                                           1
       Number of orbital shells:                                               5
       Number of primitive Cartesian functions:                                5
       Number of Cartesian basis functions:                                   14
       Number of spherical basis functions:                                   13
       Norm type:                                                              2

       Normalised Cartesian orbitals:

                        Set   Shell   Orbital            Exponent    Coefficient

                          1       1    2s               10.389228       0.396646
                                                         3.849621       0.208811
                                                         1.388401      -0.301641
                                                         0.496955      -0.274061
                                                         0.162492      -0.033677

                          1       2    3s               10.389228       0.303673
                                                         3.849621       0.240943
                                                         1.388401      -0.313066
                                                         0.496955      -0.043055
                                                         0.162492       0.213991

                          1       3    3px              10.389228      -1.530415
                                                         3.849621      -1.371928
                                                         1.388401      -0.761951
                                                         0.496955      -0.253695
                                                         0.162492      -0.035541
                          1       3    3py              10.389228      -1.530415
                                                         3.849621      -1.371928
                                                         1.388401      -0.761951
                                                         0.496955      -0.253695
                                                         0.162492      -0.035541
                          1       3    3pz              10.389228      -1.530415
                                                         3.849621      -1.371928
                                                         1.388401      -0.761951
                                                         0.496955      -0.253695
                                                         0.162492      -0.035541

                          1       4    4px              10.389228      -0.565392
                                                         3.849621      -0.038231
                                                         1.388401      -0.382373
                                                         0.496955       0.179070
                                                         0.162492       0.122714
                          1       4    4py              10.389228      -0.565392
                                                         3.849621      -0.038231
                                                         1.388401      -0.382373
                                                         0.496955       0.179070
                                                         0.162492       0.122714
                          1       4    4pz              10.389228      -0.565392
                                                         3.849621      -0.038231
                                                         1.388401      -0.382373
                                                         0.496955       0.179070
                                                         0.162492       0.122714

                          1       5    4dx2             10.389228       1.867377
                                                         3.849621       0.670994
                                                         1.388401       1.353441
                                                         0.496955       0.273538
                                                         0.162492       0.006620
                          1       5    4dxy             10.389228       3.234392
                                                         3.849621       1.162195
                                                         1.388401       2.344229
                                                         0.496955       0.473781
                                                         0.162492       0.011466
                          1       5    4dxz             10.389228       3.234392
                                                         3.849621       1.162195
                                                         1.388401       2.344229
                                                         0.496955       0.473781
                                                         0.162492       0.011466
                          1       5    4dy2             10.389228       1.867377
                                                         3.849621       0.670994
                                                         1.388401       1.353441
                                                         0.496955       0.273538
                                                         0.162492       0.006620
                          1       5    4dyz             10.389228       3.234392
                                                         3.849621       1.162195
                                                         1.388401       2.344229
                                                         0.496955       0.473781
                                                         0.162492       0.011466
                          1       5    4dz2             10.389228       1.867377
                                                         3.849621       0.670994
                                                         1.388401       1.353441
                                                         0.496955       0.273538
                                                         0.162492       0.006620

       Atomic covalent radius [Angstrom]:                                  0.730

       Atomic van der Waals radius [Angstrom]:                             1.520

     GTH Potential information for                                    GTH-PBE-q6

       Description:                       Goedecker-Teter-Hutter pseudopotential
                                           Goedecker et al., PRB 54, 1703 (1996)
                                          Hartwigsen et al., PRB 58, 3641 (1998)
                                                      Krack, TCA 114, 145 (2005)

       Gaussian exponent of the core charge distribution:               8.360253
       Electronic configuration (s p d ...):                               2   4

       Parameters of the local part of the GTH pseudopotential:

                          rloc        C1          C2          C3          C4
                        0.244554  -16.667215    2.487311

       Parameters of the non-local part of the GTH pseudopotential:

                   l      r(l)      h(i,j,l)

                   0    0.220956   18.337458
                   1    0.211332


 MOLECULE KIND INFORMATION


 All atoms are their own molecule, skipping detailed information


 TOTAL NUMBERS AND MAXIMUM NUMBERS

  Total number of            - Atomic kinds:                                   2
                             - Atoms:                                        270
                             - Shell sets:                                   270
                             - Shells:                                      1620
                             - Primitive Cartesian functions:               1440
                             - Cartesian basis functions:                   5310
                             - Spherical basis functions:                   4680

  Maximum angular momentum of- Orbital basis functions:                        3
                             - Local part of the GTH pseudopotential:          2
                             - Non-local part of the GTH pseudopotential:      3


 MODULE QUICKSTEP:  ATOMIC COORDINATES IN angstrom

 Atom  Kind  Element       X           Y           Z          Z(eff)       Mass
    1   1 Ti  22       0.000053    0.000813    0.001497      12.0000     47.8670
    2   1 Ti  22       2.317633    2.318114    1.505123      12.0000     47.8670
    3   1 Ti  22       4.636485   -0.001670   -0.002044      12.0000     47.8670
    4   1 Ti  22       6.950549    2.316831    1.504869      12.0000     47.8670
    5   1 Ti  22       9.271023    0.000918    0.001395      12.0000     47.8670
    6   1 Ti  22      11.594620    2.319169    1.505017      12.0000     47.8670
    7   1 Ti  22      -0.002199    4.637388   -0.001810      12.0000     47.8670
    8   1 Ti  22       2.316177    6.951403    1.505025      12.0000     47.8670
    9   1 Ti  22       4.634673    4.635907    0.000809      12.0000     47.8670
   10   1 Ti  22       6.953663    6.954105    1.505029      12.0000     47.8670
   11   1 Ti  22       9.274171    4.634879    0.001659      12.0000     47.8670
   12   1 Ti  22      11.583393    6.962355    1.505471      12.0000     47.8670
   13   1 Ti  22      -0.000212    9.271608    0.001762      12.0000     47.8670
   14   1 Ti  22       2.318586   11.594999    1.505097      12.0000     47.8670
   15   1 Ti  22       4.634504    9.274682    0.001509      12.0000     47.8670
   16   1 Ti  22       6.961952   11.584061    1.505371      12.0000     47.8670
   17   1 Ti  22       9.272931    9.273468   -0.010948      12.0000     47.8670
   18   1 Ti  22      11.591999   11.592790    1.505257      12.0000     47.8670
   19   1 Ti  22      -0.000929   -0.000564    3.010714      12.0000     47.8670
   20   1 Ti  22       2.317839    2.318082    4.513477      12.0000     47.8670
   21   1 Ti  22       4.636838   -0.001209    3.010570      12.0000     47.8670
   22   1 Ti  22       6.958175    2.320547    4.515050      12.0000     47.8670
   23   1 Ti  22       9.272279    0.000343    3.009272      12.0000     47.8670
   24   1 Ti  22      11.587787    2.315716    4.515083      12.0000     47.8670
   25   1 Ti  22      -0.001455    4.637171    3.010714      12.0000     47.8670
   26   1 Ti  22       2.320374    6.958444    4.515120      12.0000     47.8670
   27   1 Ti  22       4.636532    4.636755    3.010227      12.0000     47.8670
   28   1 Ti  22       6.955185    6.955637    4.516664      12.0000     47.8670
   29   1 Ti  22       9.273211    4.635785    3.009514      12.0000     47.8670
   30   1 Ti  22      11.588075    6.958307    4.511295      12.0000     47.8670
   31   1 Ti  22      -0.000140    9.272743    3.009569      12.0000     47.8670
   32   1 Ti  22       2.315362   11.588238    4.515205      12.0000     47.8670
   33   1 Ti  22       4.635472    9.273798    3.009381      12.0000     47.8670
   34   1 Ti  22       6.957955   11.588394    4.511290      12.0000     47.8670
   35   1 Ti  22       9.272893    9.273334    3.022107      12.0000     47.8670
   36   1 Ti  22      11.590644   11.591020    4.516753      12.0000     47.8670
   37   1 Ti  22      -0.000743   -0.000311    6.018162      12.0000     47.8670
   38   1 Ti  22       2.317267    2.317789    7.522155      12.0000     47.8670
   39   1 Ti  22       4.636964   -0.001110    6.024326      12.0000     47.8670
   40   1 Ti  22       6.952467    2.320416    7.522814      12.0000     47.8670
   41   1 Ti  22       9.265016   -0.005006    6.018774      12.0000     47.8670
   42   1 Ti  22      11.593467    2.315642    7.522855      12.0000     47.8670
   43   1 Ti  22      -0.001519    4.637373    6.024352      12.0000     47.8670
   44   1 Ti  22       2.320061    6.952676    7.522915      12.0000     47.8670
   45   1 Ti  22       4.635829    4.636183    6.017865      12.0000     47.8670
   46   1 Ti  22       6.952778    6.953251    7.527499      12.0000     47.8670
   47   1 Ti  22       9.281081    4.641210    6.018990      12.0000     47.8670
   48   1 Ti  22      11.573232    6.973162    7.522567      12.0000     47.8670
   49   1 Ti  22      -0.005208    9.265291    6.018948      12.0000     47.8670
   50   1 Ti  22       2.315218   11.593889    7.523016      12.0000     47.8670
   51   1 Ti  22       4.640738    9.281454    6.018905      12.0000     47.8670
   52   1 Ti  22       6.972831   11.573485    7.522552      12.0000     47.8670
   53   1 Ti  22       9.273000    9.273258    6.046736      12.0000     47.8670
   54   1 Ti  22      11.592989   11.593203    7.527788      12.0000     47.8670
   55   1 Ti  22       0.003025    0.003486    9.030564      12.0000     47.8670
   56   1 Ti  22       2.317849    2.318187   10.535117      12.0000     47.8670
   57   1 Ti  22       4.644335   -0.008391    9.028903      12.0000     47.8670
   58   1 Ti  22       6.953006    2.319626   10.535860      12.0000     47.8670
   59   1 Ti  22       9.272332    0.002274    9.029746      12.0000     47.8670
   60   1 Ti  22      11.592985    2.316638   10.535899      12.0000     47.8670
   61   1 Ti  22      -0.008860    4.644665    9.029042      12.0000     47.8670
   62   1 Ti  22       2.319325    6.953332   10.535935      12.0000     47.8670
   63   1 Ti  22       4.632171    4.632499    9.030171      12.0000     47.8670
   64   1 Ti  22       6.953663    6.954073   10.532383      12.0000     47.8670
   65   1 Ti  22       9.273669    4.634011    9.029923      12.0000     47.8670
   66   1 Ti  22      11.573197    6.973235   10.537157      12.0000     47.8670
   67   1 Ti  22       0.001972    9.272728    9.029961      12.0000     47.8670
   68   1 Ti  22       2.316311   11.593503   10.536041      12.0000     47.8670
   69   1 Ti  22       4.633538    9.274090    9.029871      12.0000     47.8670
   70   1 Ti  22       6.972866   11.573547   10.537163      12.0000     47.8670
   71   1 Ti  22       9.272944    9.273314    9.029786      12.0000     47.8670
   72   1 Ti  22      11.592271   11.592699   10.532730      12.0000     47.8670
   73   1 Ti  22      -0.000493   -0.000124   12.041766      12.0000     47.8670
   74   1 Ti  22       2.317526    2.318195   13.543759      12.0000     47.8670
   75   1 Ti  22       4.636749   -0.001101   12.033328      12.0000     47.8670
   76   1 Ti  22       6.957317    2.321109   13.543653      12.0000     47.8670
   77   1 Ti  22       9.265245   -0.005123   12.041024      12.0000     47.8670
   78   1 Ti  22      11.588002    2.314863   13.543630      12.0000     47.8670
   79   1 Ti  22      -0.001443    4.637162   12.033428      12.0000     47.8670
   80   1 Ti  22       2.320275    6.958273   13.543706      12.0000     47.8670
   81   1 Ti  22       4.636106    4.636491   12.041361      12.0000     47.8670
   82   1 Ti  22       6.954546    6.954913   13.543237      12.0000     47.8670
   83   1 Ti  22       9.280425    4.641229   12.041201      12.0000     47.8670
   84   1 Ti  22      11.587653    6.958191   13.547942      12.0000     47.8670
   85   1 Ti  22      -0.005595    9.265694   12.041174      12.0000     47.8670
   86   1 Ti  22       2.314216   11.588334   13.543797      12.0000     47.8670
   87   1 Ti  22       4.640874    9.280888   12.041133      12.0000     47.8670
   88   1 Ti  22       6.957778   11.588208   13.547984      12.0000     47.8670
   89   1 Ti  22       9.272951    9.273337   12.013230      12.0000     47.8670
   90   1 Ti  22      11.591285   11.591896   13.543384      12.0000     47.8670
   91   2 O    8       1.416722    1.417276    0.000658       6.0000     15.9994
   92   2 O    8       3.218384    3.218941    0.000609       6.0000     15.9994
   93   2 O    8       0.902190    3.733433    1.505237       6.0000     15.9994
   94   2 O    8       3.732928    0.902631    1.505198       6.0000     15.9994
   95   2 O    8       6.055485    1.421147    0.000633       6.0000     15.9994
   96   2 O    8       7.852105    3.221063    0.000871       6.0000     15.9994
   97   2 O    8       5.534621    3.735955    1.505188       6.0000     15.9994
   98   2 O    8       8.375234    0.904968    1.505180       6.0000     15.9994
   99   2 O    8      10.693474    1.415053    0.000884       6.0000     15.9994
  100   2 O    8      12.490073    3.214991    0.000674       6.0000     15.9994
  101   2 O    8      10.170329    3.731116    1.505191       6.0000     15.9994
  102   2 O    8      13.010973    0.900243    1.505293       6.0000     15.9994
  103   2 O    8       1.420608    6.056069    0.000648       6.0000     15.9994
  104   2 O    8       3.220555    7.852684    0.000866       6.0000     15.9994
  105   2 O    8       0.904460    8.375739    1.505211       6.0000     15.9994
  106   2 O    8       3.735427    5.535175    1.505167       6.0000     15.9994
  107   2 O    8       6.051053    6.051599    0.001295       6.0000     15.9994
  108   2 O    8       7.849281    7.849736    0.002345       6.0000     15.9994
  109   2 O    8       5.534064    8.373696    1.505263       6.0000     15.9994
  110   2 O    8       8.373194    5.534525    1.505286       6.0000     15.9994
  111   2 O    8      10.695225    6.046589    0.004147       6.0000     15.9994
  112   2 O    8      12.499539    7.850869    0.004151       6.0000     15.9994
  113   2 O    8      10.176640    8.369554    1.505387       6.0000     15.9994
  114   2 O    8      13.013791    5.532260    1.505169       6.0000     15.9994
  115   2 O    8       1.414529   10.693965    0.000891       6.0000     15.9994
  116   2 O    8       3.214462   12.490558    0.000661       6.0000     15.9994
  117   2 O    8       0.899690   13.011509    1.505237       6.0000     15.9994
  118   2 O    8       3.730668   10.170860    1.505185       6.0000     15.9994
  119   2 O    8       6.046188   10.695699    0.004106       6.0000     15.9994
  120   2 O    8       7.850407   12.500018    0.004115       6.0000     15.9994
  121   2 O    8       5.531788   13.014234    1.505158       6.0000     15.9994
  122   2 O    8       8.369133   10.177076    1.505377       6.0000     15.9994
  123   2 O    8      10.696441   10.696962    0.002373       6.0000     15.9994
  124   2 O    8      12.494586   12.495164    0.001377       6.0000     15.9994
  125   2 O    8      10.172413   13.012070    1.505286       6.0000     15.9994
  126   2 O    8      13.011540   10.172879    1.505287       6.0000     15.9994
  127   2 O    8       1.416856    1.417318    3.009644       6.0000     15.9994
  128   2 O    8       3.218360    3.218817    3.009627       6.0000     15.9994
  129   2 O    8       0.902363    3.733305    4.513720       6.0000     15.9994
  130   2 O    8       3.732863    0.902793    4.513728       6.0000     15.9994
  131   2 O    8       6.055582    1.421118    3.009523       6.0000     15.9994
  132   2 O    8       7.852112    3.221136    3.009334       6.0000     15.9994
  133   2 O    8       5.535478    3.736373    4.514643       6.0000     15.9994
  134   2 O    8       8.376445    0.907072    4.511345       6.0000     15.9994
  135   2 O    8      10.693509    1.415024    3.009328       6.0000     15.9994
  136   2 O    8      12.490039    3.214999    3.009530       6.0000     15.9994
  137   2 O    8      10.169261    3.729075    4.511343       6.0000     15.9994
  138   2 O    8      13.010230    0.899755    4.514704       6.0000     15.9994
  139   2 O    8       1.420658    6.056091    3.009523       6.0000     15.9994
  140   2 O    8       3.220655    7.852626    3.009329       6.0000     15.9994
  141   2 O    8       0.906643    8.376933    4.511351       6.0000     15.9994
  142   2 O    8       3.735918    5.535948    4.514672       6.0000     15.9994
  143   2 O    8       6.051033    6.051500    3.009013       6.0000     15.9994
  144   2 O    8       7.849301    7.849758    3.008064       6.0000     15.9994
  145   2 O    8       5.533850    8.374430    4.513757       6.0000     15.9994
  146   2 O    8       8.373990    5.534308    4.513786       6.0000     15.9994
  147   2 O    8      10.695238    6.046718    3.006140       6.0000     15.9994
  148   2 O    8      12.499477    7.850844    3.006148       6.0000     15.9994
  149   2 O    8      10.178190    8.368044    4.491387       6.0000     15.9994
  150   2 O    8      13.015557    5.530619    4.509402       6.0000     15.9994
  151   2 O    8       1.414528   10.693995    3.009333       6.0000     15.9994
  152   2 O    8       3.214506   12.490515    3.009530       6.0000     15.9994
  153   2 O    8       0.899306   13.010683    4.514700       6.0000     15.9994
  154   2 O    8       3.728668   10.169749    4.511353       6.0000     15.9994
  155   2 O    8       6.046314   10.695677    3.006125       6.0000     15.9994
  156   2 O    8       7.850427   12.499924    3.006116       6.0000     15.9994
  157   2 O    8       5.530209   13.015960    4.509382       6.0000     15.9994
  158   2 O    8       8.367665   10.178570    4.491381       6.0000     15.9994
  159   2 O    8      10.696430   10.696918    3.008119       6.0000     15.9994
  160   2 O    8      12.494686   12.495158    3.009039       6.0000     15.9994
  161   2 O    8      10.171751   13.012351    4.513766       6.0000     15.9994
  162   2 O    8      13.011876   10.172180    4.513791       6.0000     15.9994
  163   2 O    8       1.416859    1.417301    6.018521       6.0000     15.9994
  164   2 O    8       3.218369    3.218802    6.018492       6.0000     15.9994
  165   2 O    8       0.903642    3.731994    7.522037       6.0000     15.9994
  166   2 O    8       3.731594    0.904052    7.522032       6.0000     15.9994
  167   2 O    8       6.056397    1.420442    6.018880       6.0000     15.9994
  168   2 O    8       7.854679    3.218401    6.020224       6.0000     15.9994
  169   2 O    8       5.534695    3.734998    7.524356       6.0000     15.9994
  170   2 O    8       8.372838    0.900760    7.527185       6.0000     15.9994
  171   2 O    8      10.691071    1.417747    6.020226       6.0000     15.9994
  172   2 O    8      12.489344    3.215706    6.018882       6.0000     15.9994
  173   2 O    8      10.172925    3.735372    7.527201       6.0000     15.9994
  174   2 O    8      13.011034    0.901132    7.524390       6.0000     15.9994
  175   2 O    8       1.420009    6.056824    6.018888       6.0000     15.9994
  176   2 O    8       3.217976    7.855124    6.020215       6.0000     15.9994
  177   2 O    8       0.900357    8.373281    7.527198       6.0000     15.9994
  178   2 O    8       3.734560    5.535129    7.524352       6.0000     15.9994
  179   2 O    8       6.049972    6.050408    6.018589       6.0000     15.9994
  180   2 O    8       7.846928    7.847355    6.013107       6.0000     15.9994
  181   2 O    8       5.536153    8.376036    7.521180       6.0000     15.9994
  182   2 O    8       8.375628    5.536596    7.521184       6.0000     15.9994
  183   2 O    8      10.703655    6.034141    6.004441       6.0000     15.9994
  184   2 O    8      12.512080    7.842635    6.004403       6.0000     15.9994
  185   2 O    8      10.211951    8.334306    7.427625       6.0000     15.9994
  186   2 O    8      13.019093    5.527163    7.523520       6.0000     15.9994
  187   2 O    8       1.417318   10.691513    6.020239       6.0000     15.9994
  188   2 O    8       3.215265   12.489797    6.018873       6.0000     15.9994
  189   2 O    8       0.900701   13.011483    7.524391       6.0000     15.9994
  190   2 O    8       3.734970   10.173377    7.527188       6.0000     15.9994
  191   2 O    8       6.033833   10.703970    6.004407       6.0000     15.9994
  192   2 O    8       7.842349   12.512369    6.004371       6.0000     15.9994
  193   2 O    8       5.526782   13.019474    7.523490       6.0000     15.9994
  194   2 O    8       8.333989   10.212252    7.427634       6.0000     15.9994
  195   2 O    8      10.698909   10.699330    6.013175       6.0000     15.9994
  196   2 O    8      12.495844   12.496272    6.018602       6.0000     15.9994
  197   2 O    8      10.170210   13.010088    7.521204       6.0000     15.9994
  198   2 O    8      13.009649   10.170630    7.521210       6.0000     15.9994
  199   2 O    8       1.417232    1.417685    9.029602       6.0000     15.9994
  200   2 O    8       3.218000    3.218444    9.029610       6.0000     15.9994
  201   2 O    8       0.903743    3.731948   10.537064       6.0000     15.9994
  202   2 O    8       3.731505    0.904179   10.537027       6.0000     15.9994
  203   2 O    8       6.055442    1.421322    9.029580       6.0000     15.9994
  204   2 O    8       7.853672    3.222244    9.029606       6.0000     15.9994
  205   2 O    8       5.534582    3.735015   10.534739       6.0000     15.9994
  206   2 O    8       8.372845    0.900930   10.531748       6.0000     15.9994
  207   2 O    8      10.692078    1.413928    9.029598       6.0000     15.9994
  208   2 O    8      12.490313    3.214831    9.029582       6.0000     15.9994
  209   2 O    8      10.172864    3.735217   10.531766       6.0000     15.9994
  210   2 O    8      13.011149    0.901145   10.534779       6.0000     15.9994
  211   2 O    8       1.420892    6.055877    9.029572       6.0000     15.9994
  212   2 O    8       3.221805    7.854119    9.029598       6.0000     15.9994
  213   2 O    8       0.900483    8.373332   10.531771       6.0000     15.9994
  214   2 O    8       3.734555    5.535058   10.534727       6.0000     15.9994
  215   2 O    8       6.047674    6.048103    9.029697       6.0000     15.9994
  216   2 O    8       7.838764    7.839185    9.029533       6.0000     15.9994
  217   2 O    8       5.536317    8.376225   10.538290       6.0000     15.9994
  218   2 O    8       8.375782    5.536776   10.538298       6.0000     15.9994
  219   2 O    8      10.688321    6.059559    9.029838       6.0000     15.9994
  220   2 O    8      12.486710    7.857915    9.029838       6.0000     15.9994
  221   2 O    8      10.211659    8.334701   10.632509       6.0000     15.9994
  222   2 O    8      13.019248    5.526948   10.535452       6.0000     15.9994
  223   2 O    8       1.413492   10.692530    9.029592       6.0000     15.9994
  224   2 O    8       3.214390   12.490759    9.029593       6.0000     15.9994
  225   2 O    8       0.900696   13.011612   10.534796       6.0000     15.9994
  226   2 O    8       3.734789   10.173345   10.531749       6.0000     15.9994
  227   2 O    8       6.059177   10.688709    9.029803       6.0000     15.9994
  228   2 O    8       7.857536   12.487085    9.029801       6.0000     15.9994
  229   2 O    8       5.526536   13.019665   10.535443       6.0000     15.9994
  230   2 O    8       8.334341   10.212026   10.632429       6.0000     15.9994
  231   2 O    8      10.707167   10.707574    9.029604       6.0000     15.9994
  232   2 O    8      12.498189   12.498614    9.029776       6.0000     15.9994
  233   2 O    8      10.169990   13.009918   10.538301       6.0000     15.9994
  234   2 O    8      13.009449   10.170424   10.538315       6.0000     15.9994
  235   2 O    8       1.416891    1.417367   12.040482       6.0000     15.9994
  236   2 O    8       3.218318    3.218796   12.040468       6.0000     15.9994
  237   2 O    8       0.902368    3.733240   13.545083       6.0000     15.9994
  238   2 O    8       3.732740    0.902806   13.545089       6.0000     15.9994
  239   2 O    8       6.056359    1.420440   12.039842       6.0000     15.9994
  240   2 O    8       7.854670    3.218385   12.038578       6.0000     15.9994
  241   2 O    8       5.535420    3.736316   13.544214       6.0000     15.9994
  242   2 O    8       8.376350    0.907150   13.547621       6.0000     15.9994
  243   2 O    8      10.690990    1.417772   12.038581       6.0000     15.9994
  244   2 O    8      12.489275    3.215706   12.039860       6.0000     15.9994
  245   2 O    8      10.169241    3.728947   13.547651       6.0000     15.9994
  246   2 O    8      13.010201    0.899903   13.544292       6.0000     15.9994
  247   2 O    8       1.419949    6.056883   12.039852       6.0000     15.9994
  248   2 O    8       3.217892    7.855192   12.038571       6.0000     15.9994
  249   2 O    8       0.906660    8.376856   13.547641       6.0000     15.9994
  250   2 O    8       3.735782    5.535966   13.544234       6.0000     15.9994
  251   2 O    8       6.049884    6.050352   12.040388       6.0000     15.9994
  252   2 O    8       7.846809    7.847264   12.046274       6.0000     15.9994
  253   2 O    8       5.533709    8.374527   13.544973       6.0000     15.9994
  254   2 O    8       8.374037    5.534178   13.544982       6.0000     15.9994
  255   2 O    8      10.704332    6.033664   12.054679       6.0000     15.9994
  256   2 O    8      12.512581    7.841834   12.054673       6.0000     15.9994
  257   2 O    8      10.178316    8.367910   13.568387       6.0000     15.9994
  258   2 O    8      13.015617    5.530452   13.549579       6.0000     15.9994
  259   2 O    8       1.417263   10.691471   12.038603       6.0000     15.9994
  260   2 O    8       3.215199   12.489757   12.039842       6.0000     15.9994
  261   2 O    8       0.899339   13.010734   13.544347       6.0000     15.9994
  262   2 O    8       3.728501   10.169774   13.547621       6.0000     15.9994
  263   2 O    8       6.033317   10.704717   12.054615       6.0000     15.9994
  264   2 O    8       7.841458   12.512974   12.054607       6.0000     15.9994
  265   2 O    8       5.529979   13.016059   13.549530       6.0000     15.9994
  266   2 O    8       8.367487   10.178744   13.568371       6.0000     15.9994
  267   2 O    8      10.698984   10.699470   12.046316       6.0000     15.9994
  268   2 O    8      12.495868   12.496344   12.040465       6.0000     15.9994
  269   2 O    8      10.171599   13.012447   13.544996       6.0000     15.9994
  270   2 O    8      13.011901   10.172072   13.545031       6.0000     15.9994




 SCF PARAMETERS         Density guess:                                   RESTART
                        --------------------------------------------------------
                        max_scf:                                             100
                        max_scf_history:                                       0
                        max_diis:                                              4
                        --------------------------------------------------------
                        eps_scf:                                        5.00E-07
                        eps_scf_history:                                0.00E+00
                        eps_diis:                                       1.00E-01
                        eps_eigval:                                     1.00E-05
                        --------------------------------------------------------
                        level_shift [a.u.]:                             0.000000
                        --------------------------------------------------------
                        Outer loop SCF in use 
                        No variables optimised in outer loop
                        eps_scf                                         5.00E-07
                        max_scf                                               20
                        DIIS optimization
                        DIIS buffer length                                     3
                        step_size                                       1.50E-01

 PW_GRID| Information for grid number                                          1
 PW_GRID| Grid distributed over                                    40 processors
 PW_GRID| Real space group dimensions                                    40    1
 PW_GRID| the grid is blocked:                                                NO
 PW_GRID| Cutoff [a.u.]                                                    400.0
 PW_GRID| spherical cutoff:                                                   NO
 PW_GRID|   Bounds   1           -120     119                Points:         240
 PW_GRID|   Bounds   2           -120     119                Points:         240
 PW_GRID|   Bounds   3           -144     143                Points:         288
 PW_GRID| Volume element (a.u.^3)  0.1185E-02     Volume (a.u.^3)     19651.0990
 PW_GRID| Grid span                                                    FULLSPACE
 PW_GRID|   Distribution                         Average         Max         Min
 PW_GRID|   G-Vectors                           414720.0      414720      414720
 PW_GRID|   G-Rays                                1728.0        1728        1728
 PW_GRID|   Real Space Points                   414720.0      414720      414720

 PW_GRID| Information for grid number                                          2
 PW_GRID| Number of the reference grid                                         1
 PW_GRID| Grid distributed over                                    40 processors
 PW_GRID| Real space group dimensions                                    40    1
 PW_GRID| the grid is blocked:                                                NO
 PW_GRID| Cutoff [a.u.]                                                    100.0
 PW_GRID| spherical cutoff:                                                   NO
 PW_GRID|   Bounds   1            -60      59                Points:         120
 PW_GRID|   Bounds   2            -60      59                Points:         120
 PW_GRID|   Bounds   3            -72      71                Points:         144
 PW_GRID| Volume element (a.u.^3)  0.9477E-02     Volume (a.u.^3)     19651.0990
 PW_GRID| Grid span                                                    FULLSPACE
 PW_GRID|   Distribution                         Average         Max         Min
 PW_GRID|   G-Vectors                            51840.0       52680       51000
 PW_GRID|   G-Rays                                 432.0         439         425
 PW_GRID|   Real Space Points                    51840.0       51840       51840

 PW_GRID| Information for grid number                                          3
 PW_GRID| Number of the reference grid                                         1
 PW_GRID| Grid distributed over                                    40 processors
 PW_GRID| Real space group dimensions                                    40    1
 PW_GRID| the grid is blocked:                                                NO
 PW_GRID| Cutoff [a.u.]                                                     25.0
 PW_GRID| spherical cutoff:                                                   NO
 PW_GRID|   Bounds   1            -30      29                Points:          60
 PW_GRID|   Bounds   2            -30      29                Points:          60
 PW_GRID|   Bounds   3            -36      35                Points:          72
 PW_GRID| Volume element (a.u.^3)  0.7581E-01     Volume (a.u.^3)     19651.0990
 PW_GRID| Grid span                                                    FULLSPACE
 PW_GRID|   Distribution                         Average         Max         Min
 PW_GRID|   G-Vectors                             6480.0        6720        6300
 PW_GRID|   G-Rays                                 108.0         112         105
 PW_GRID|   Real Space Points                     6480.0        8640        4320

 PW_GRID| Information for grid number                                          4
 PW_GRID| Number of the reference grid                                         1
 PW_GRID| Grid distributed over                                    40 processors
 PW_GRID| Real space group dimensions                                    40    1
 PW_GRID| the grid is blocked:                                                NO
 PW_GRID| Cutoff [a.u.]                                                      6.2
 PW_GRID| spherical cutoff:                                                   NO
 PW_GRID|   Bounds   1            -15      14                Points:          30
 PW_GRID|   Bounds   2            -15      14                Points:          30
 PW_GRID|   Bounds   3            -18      17                Points:          36
 PW_GRID| Volume element (a.u.^3)  0.6065         Volume (a.u.^3)     19651.0990
 PW_GRID| Grid span                                                    FULLSPACE
 PW_GRID|   Distribution                         Average         Max         Min
 PW_GRID|   G-Vectors                              810.0         930         750
 PW_GRID|   G-Rays                                  27.0          31          25
 PW_GRID|   Real Space Points                      810.0        1080           0

 PW_GRID| Information for grid number                                          5
 PW_GRID| Number of the reference grid                                         1
 PW_GRID| Grid distributed over                                    40 processors
 PW_GRID| Real space group dimensions                                    40    1
 PW_GRID| the grid is blocked:                                                NO
 PW_GRID| Cutoff [a.u.]                                                      1.6
 PW_GRID| spherical cutoff:                                                   NO
 PW_GRID|   Bounds   1             -7       7                Points:          15
 PW_GRID|   Bounds   2             -7       7                Points:          15
 PW_GRID|   Bounds   3             -9       8                Points:          18
 PW_GRID| Volume element (a.u.^3)   4.852         Volume (a.u.^3)     19651.0990
 PW_GRID| Grid span                                                    FULLSPACE
 PW_GRID|   Distribution                         Average         Max         Min
 PW_GRID|   G-Vectors                              101.2         150          75
 PW_GRID|   G-Rays                                   6.8          10           5
 PW_GRID|   Real Space Points                      101.2         270           0

 POISSON| Solver                                                        PERIODIC
 POISSON| Periodicity                                                        XYZ

 RS_GRID| Information for grid number                                          1
 RS_GRID|   Bounds   1           -120     119                Points:         240
 RS_GRID|   Bounds   2           -120     119                Points:         240
 RS_GRID|   Bounds   3           -144     143                Points:         288
 RS_GRID| Real space distribution over                                  5 groups
 RS_GRID| Real space distribution along direction                              2
 RS_GRID| Border size                                                         32
 RS_GRID| Real space distribution over                                  8 groups
 RS_GRID| Real space distribution along direction                              3
 RS_GRID| Border size                                                         32
 RS_GRID|   Distribution                         Average         Max         Min
 RS_GRID|   Planes                                 112.0         112         112
 RS_GRID|   Distribution                         Average         Max         Min
 RS_GRID|   Planes                                 100.0         100         100

 RS_GRID| Information for grid number                                          2
 RS_GRID|   Bounds   1            -60      59                Points:         120
 RS_GRID|   Bounds   2            -60      59                Points:         120
 RS_GRID|   Bounds   3            -72      71                Points:         144
 RS_GRID| Real space distribution over                                  5 groups
 RS_GRID| Real space distribution along direction                              2
 RS_GRID| Border size                                                         28
 RS_GRID| Real space distribution over                                  8 groups
 RS_GRID| Real space distribution along direction                              3
 RS_GRID| Border size                                                         28
 RS_GRID|   Distribution                         Average         Max         Min
 RS_GRID|   Planes                                  80.0          80          80
 RS_GRID|   Distribution                         Average         Max         Min
 RS_GRID|   Planes                                  74.0          74          74

 RS_GRID| Information for grid number                                          3
 RS_GRID|   Bounds   1            -30      29                Points:          60
 RS_GRID|   Bounds   2            -30      29                Points:          60
 RS_GRID|   Bounds   3            -36      35                Points:          72
 RS_GRID| Real space fully replicated
 RS_GRID| Group size                                                           1

 RS_GRID| Information for grid number                                          4
 RS_GRID|   Bounds   1            -15      14                Points:          30
 RS_GRID|   Bounds   2            -15      14                Points:          30
 RS_GRID|   Bounds   3            -18      17                Points:          36
 RS_GRID| Real space fully replicated
 RS_GRID| Group size                                                           1

 RS_GRID| Information for grid number                                          5
 RS_GRID|   Bounds   1             -7       7                Points:          15
 RS_GRID|   Bounds   2             -7       7                Points:          15
 RS_GRID|   Bounds   3             -9       8                Points:          18
 RS_GRID| Real space fully replicated
 RS_GRID| Group size                                                           1

 BFGS| Use rational function optimization for step estimation:                NO
 BFGS| Use model Hessian for initial guess:                                  YES
 BFGS| Restart Hessian:                                                       NO
 BFGS| Trust radius:                                                       0.472

 *** WARNING in fm/cp_fm_elpa.F:521 :: Setting real_kernel for ELPA failed ***


 *******************************************************************************
 ***                     STARTING GEOMETRY OPTIMIZATION                      ***
 ***                                   BFGS                                  ***
 *******************************************************************************

 Spin 1

 Number of electrons:                                                       1081
 Number of occupied orbitals:                                               1081
 Number of molecular orbitals:                                              1081

 Spin 2

 Number of electrons:                                                       1080
 Number of occupied orbitals:                                               1080
 Number of molecular orbitals:                                              1080

 Number of orbital functions:                                               4680

 *** WARNING in fm/cp_fm_elpa.F:521 :: Setting real_kernel for ELPA failed ***

 Number of independent orbital functions:                                   4680

 Extrapolation method: initial_guess


 CDFT EXTERNAL SCF WAVEFUNCTION OPTIMIZATION

  ---------------------------------- CDFT --------------------------------------
  Optimizing a density constraint in an external SCF loop 
  
  Type of constraint:     Hirshfeld
  Number of constraints:          1
  Using fragment densities:       F
  
  Calculating atomic CDFT charges

  Minimizer               : Secant

  Reusing OT preconditioner:       F

  Hirshfeld constraint settings
  
  Shape function type:      Density

  ---------------------------------- CDFT --------------------------------------


 SCF WAVEFUNCTION OPTIMIZATION

  ----------------------------------- OT ---------------------------------------
  Minimizer      : CG                  : conjugate gradient
  Preconditioner : FULL_ALL            : diagonalization, state selective
  Precond_solver : DEFAULT
  Line search    : 2PNT                : 2 energies, one gradient
[...]
 *  \___/        mp_world_finalize: assert failed:  leaking communicators      *
 *    |                                                                        *
 *  O/|                                                                        *
 * /| |                                                                        *
 * / \                                           mpiwrap/message_passing.F:843 *
 *******************************************************************************


 *******************************************************************************
 *   ___                                                                       *
 *  /   \                                                                      *
 * [ABORT]                                                                     *
 *  \___/        mp_world_finalize: assert failed:  leaking communicators      *
 *    |                                                                        *
 *  O/|                                                                        *
 * /| |                                                                        *
 * / \                                           mpiwrap/message_passing.F:843 *
 *******************************************************************************


 *******************************************************************************
 *   ___                                                                       *
 *  /   \                                                                      *
 * [ABORT]                                                                     *
 *  \___/        mp_world_finalize: assert failed:  leaking communicators      *
 *    |                                                                        *
 *  O/|                                                                        *
 * /| |                                                                        *
 * / \                                           mpiwrap/message_passing.F:843 *
 *******************************************************************************


 *******************************************************************************
 *   ___                                                                       *
 *  /   \                                                                      *
 * [ABORT]                                                                     *
 *  \___/        mp_world_finalize: assert failed:  leaking communicators      *
 *    |                                                                        *
 *  O/|                                                                        *
 * /| |                                                                        *
 * / \                                           mpiwrap/message_passing.F:843 *
 *******************************************************************************


 *******************************************************************************
 *   ___                                                                       *
 *  /   \                                                                      *
 * [ABORT]                                                                     *
 *  \___/        mp_world_finalize: assert failed:  leaking communicators      *
 *    |                                                                        *
 *  O/|                                                                        *
 * /| |                                                                        *
 * / \                                           mpiwrap/message_passing.F:843 *
 *******************************************************************************


 *******************************************************************************
 *   ___                                                                       *
 *  /   \                                                                      *
 * [ABORT]                                                                     *
 *  \___/        mp_world_finalize: assert failed:  leaking communicators      *
 *    |                                                                        *
 *  O/|                                                                        *
 * /| |                                                                        *
 * / \                                           mpiwrap/message_passing.F:843 *
 *******************************************************************************


 *******************************************************************************
 *   ___                                                                       *
 *  /   \                                                                      *
 * [ABORT]                                                                     *
 *  \___/        mp_world_finalize: assert failed:  leaking communicators      *
 *    |                                                                        *
 *  O/|                                                                        *
 * /| |                                                                        *
 * / \                                           mpiwrap/message_passing.F:843 *
 *******************************************************************************


 *******************************************************************************
 *   ___                                                                       *
 *  /   \                                                                      *
 * [ABORT]                                                                     *
 *  \___/        mp_world_finalize: assert failed:  leaking communicators      *
 *    |                                                                        *
 *  O/|                                                                        *
 * /| |                                                                        *
 * / \                                           mpiwrap/message_passing.F:843 *
 *******************************************************************************


 *******************************************************************************
 *   ___                                                                       *
 *  /   \                                                                      *
 * [ABORT]                                                                     *
 *  \___/        mp_world_finalize: assert failed:  leaking communicators      *
 *    |                                                                        *
 *  O/|                                                                        *
 * /| |                                                                        *
 * / \                                           mpiwrap/message_passing.F:843 *
 *******************************************************************************


 *******************************************************************************
 *   ___                                                                       *
 *  /   \                                                                      *
 * [ABORT]                                                                     *
 *  \___/        mp_world_finalize: assert failed:  leaking communicators      *
 *    |                                                                        *
 *  O/|                                                                        *
 * /| |                                                                        *
 * / \                                           mpiwrap/message_passing.F:843 *
 *******************************************************************************


 *******************************************************************************
 *   ___                                                                       *
 *  /   \                                                                      *
 * [ABORT]                                                                     *
 *  \___/        mp_world_finalize: assert failed:  leaking communicators      *
 *    |                                                                        *
 *  O/|                                                                        *
 * /| |                                                                        *
 * / \                                           mpiwrap/message_passing.F:843 *
 *******************************************************************************


 *******************************************************************************
 *   ___                                                                       *
 *  /   \                                                                      *
 * [ABORT]                                                                     *
 *  \___/        mp_world_finalize: assert failed:  leaking communicators      *
 *    |                                                                        *
 *  O/|                                                                        *
 * /| |                                                                        *
 * / \                                           mpiwrap/message_passing.F:843 *
 *******************************************************************************


 *******************************************************************************
 *   ___                                                                       *
 *  /   \                                                                      *
 * [ABORT]                                                                     *
 *  \___/        mp_world_finalize: assert failed:  leaking communicators      *
 *    |                                                                        *
 *  O/|                                                                        *
 * /| |                                                                        *
 * / \                                           mpiwrap/message_passing.F:843 *
 *******************************************************************************


 *******************************************************************************
 *   ___                                                                       *
 *  /   \                                                                      *
 * [ABORT]                                                                     *
 *  \___/        mp_world_finalize: assert failed:  leaking communicators      *
 *    |                                                                        *
 *  O/|                                                                        *
 * /| |                                                                        *
 * / \                                           mpiwrap/message_passing.F:843 *
 *******************************************************************************


 *******************************************************************************
 *   ___                                                                       *
 *  /   \                                                                      *
 * [ABORT]                                                                     *
 *  \___/        mp_world_finalize: assert failed:  leaking communicators      *
 *    |                                                                        *
 *  O/|                                                                        *
 * /| |                                                                        *
 * / \                                           mpiwrap/message_passing.F:843 *
 *******************************************************************************


 *******************************************************************************
 *   ___                                                                       *
 *  /   \                                                                      *
 * [ABORT]                                                                     *
 *  \___/        mp_world_finalize: assert failed:  leaking communicators      *
 *    |                                                                        *
 *  O/|                                                                        *
 * /| |                                                                        *
 * / \                                           mpiwrap/message_passing.F:843 *
 *******************************************************************************


 *******************************************************************************
 *   ___                                                                       *
 *  /   \                                                                      *
 * [ABORT]                                                                     *
 *  \___/        mp_world_finalize: assert failed:  leaking communicators      *
 *    |                                                                        *
 *  O/|                                                                        *
 * /| |                                                                        *
 * / \                                           mpiwrap/message_passing.F:843 *
 *******************************************************************************


 *******************************************************************************
 *   ___                                                                       *
 *  /   \                                                                      *
 * [ABORT]                                                                     *
 *  \___/        mp_world_finalize: assert failed:  leaking communicators      *
 *    |                                                                        *
 *  O/|                                                                        *
 * /| |                                                                        *
 * / \                                           mpiwrap/message_passing.F:843 *
 *******************************************************************************


 *******************************************************************************
 *   ___                                                                       *
 *  /   \                                                                      *
 * [ABORT]                                                                     *
 *  \___/        mp_world_finalize: assert failed:  leaking communicators      *
 *    |                                                                        *
 *  O/|                                                                        *
 * /| |                                                                        *
 * / \                                           mpiwrap/message_passing.F:843 *
 *******************************************************************************


 *******************************************************************************
 *   ___                                                                       *
 *  /   \                                                                      *
 * [ABORT]                                                                     *
 *  \___/        mp_world_finalize: assert failed:  leaking communicators      *
 *    |                                                                        *
 *  O/|                                                                        *
 * /| |                                                                        *
 * / \                                           mpiwrap/message_passing.F:843 *
 *******************************************************************************


 *******************************************************************************
 *   ___                                                                       *
 *  /   \                                                                      *
 * [ABORT]                                                                     *
 *  \___/        mp_world_finalize: assert failed:  leaking communicators      *
 *    |                                                                        *
 *  O/|                                                                        *
 * /| |                                                                        *
 * / \                                           mpiwrap/message_passing.F:843 *
 *******************************************************************************


 *******************************************************************************
 *   ___                                                                       *
 *  /   \                                                                      *
 * [ABORT]                                                                     *
 *  \___/        mp_world_finalize: assert failed:  leaking communicators      *
 *    |                                                                        *
 *  O/|                                                                        *
 * /| |                                                                        *
 * / \                                           mpiwrap/message_passing.F:843 *
 *******************************************************************************


 *******************************************************************************
 *   ___                                                                       *
 *  /   \                                                                      *
 * [ABORT]                                                                     *
 *  \___/        mp_world_finalize: assert failed:  leaking communicators      *
 *    |                                                                        *
 *  O/|                                                                        *
 * /| |                                                                        *
 * / \                                           mpiwrap/message_passing.F:843 *
 *******************************************************************************


 *******************************************************************************
 *   ___                                                                       *
 *  /   \                                                                      *
 * [ABORT]                                                                     *
 *  \___/        mp_world_finalize: assert failed:  leaking communicators      *
 *    |                                                                        *
 *  O/|                                                                        *
 * /| |                                                                        *
 * / \                                           mpiwrap/message_passing.F:843 *
 *******************************************************************************


 *******************************************************************************
 *   ___                                                                       *
 *  /   \                                                                      *
 * [ABORT]                                                                     *
 *  \___/        mp_world_finalize: assert failed:  leaking communicators      *
 *    |                                                                        *
 *  O/|                                                                        *
 * /| |                                                                        *
 * / \                                           mpiwrap/message_passing.F:843 *
 *******************************************************************************

